/*--------------------------------*- C++ -*----------------------------------*\
| =========                 |                                                 |
| \\      /  F ield         | OpenFOAM: The Open Source CFD Toolbox           |
|  \\    /   O peration     | Version:  v1806                                 |
|   \\  /    A nd           | Web:      www.OpenFOAM.com                      |
|    \\/     M anipulation  |                                                 |
\*---------------------------------------------------------------------------*/
FoamFile
{
    version     2.0;
    format      ascii;
    class       volScalarField;
    location    "1000";
    object      p;
}
// * * * * * * * * * * * * * * * * * * * * * * * * * * * * * * * * * * * * * //

dimensions      [0 2 -2 0 0 0 0];


internalField   nonuniform List<scalar> 
2475
(
0.01696746574
0.0132065373
0.01120856374
0.01052079801
0.009904799752
0.009219330347
0.008565727785
0.007926288174
0.007251304543
0.006497557594
0.005631014351
0.004597548443
0.003344990997
0.001830073233
9.414637941e-05
-0.001652952214
-0.002986856777
-0.003463705328
-0.00303243046
-0.002123345451
-0.001263152631
-0.0007001151333
-0.0004055183425
-0.0002793917392
-0.0002349313676
-0.0002306355669
-0.0002417611613
-0.0002560529939
-0.0002708843844
-0.0002724213883
-0.0002738147206
-0.0002438164431
-0.000224017457
-0.000138896807
-8.971622519e-05
0.01598383859
0.01291412748
0.01108035913
0.01040895648
0.009805160112
0.009126813774
0.008475877698
0.007838070796
0.007165191258
0.006414745086
0.005553659735
0.004529032628
0.003290476808
0.001796261818
8.763074845e-05
-0.001630117311
-0.00294191612
-0.003412560313
-0.002989730378
-0.002094576847
-0.001245514166
-0.0006887589686
-0.0003971692656
-0.0002725493693
-0.000229083836
-0.0002255937932
-0.0002374711256
-0.0002523891264
-0.0002678234036
-0.0002697885995
-0.0002716066932
-0.0002418438386
-0.0002224116757
-0.0001373479928
-8.845152916e-05
0.01484877318
0.01265561696
0.01100902717
0.01032678912
0.009730530949
0.009060797362
0.008412566982
0.007776235897
0.007105316196
0.006358372826
0.005503760328
0.004491825323
0.003276755607
0.00182258043
0.0001725785993
-0.001479632713
-0.002748356696
-0.003227741213
-0.002859385559
-0.002028102504
-0.001222561761
-0.0006854444353
-0.0003989039333
-0.0002735561596
-0.0002281289694
-0.0002230777644
-0.0002339492114
-0.0002484067662
-0.0002636444694
-0.0002656975432
-0.0002677165158
-0.0002383371748
-0.000219319417
-0.0001346501452
-8.635009879e-05
0.01397012061
0.01242462254
0.01092963425
0.01022144512
0.00963097517
0.008972349764
0.008327005464
0.00769150982
0.007021684222
0.006277793356
0.005429583628
0.004431863289
0.003243859735
0.001836886266
0.0002562277096
-0.001318241105
-0.002535041916
-0.003023827911
-0.002716902871
-0.001957491836
-0.001199395757
-0.0006820582254
-0.0003994240419
-0.0002721142662
-0.0002242164962
-0.0002174127756
-0.0002275279365
-0.0002418058824
-0.000257267614
-0.0002598045913
-0.0002623829244
-0.0002338325998
-0.0002153682748
-0.0001319018304
-8.33369689e-05
0.01318587076
0.01209416761
0.01078216134
0.01007706626
0.00950530228
0.008868340749
0.008232386208
0.007601905447
0.006936431593
0.006198585088
0.005359572771
0.004379040336
0.00322111039
0.001864148508
0.0003548306641
-0.001140623383
-0.00230380728
-0.002799574769
-0.002553116249
-0.001868262273
-0.001162494585
-0.0006696652631
-0.000394597233
-0.0002673864594
-0.0002182571492
-0.0002099776971
-0.0002195906105
-0.0002334296578
-0.0002492289456
-0.0002519589037
-0.0002553305953
-0.0002274840112
-0.0002099236657
-0.0001280461541
-7.901677e-05
0.01247233529
0.01172366313
0.01061819959
0.009932295849
0.00937701986
0.008761633843
0.008135225283
0.007509287351
0.006848009054
0.006116462465
0.005287408976
0.004325188831
0.00319878537
0.001892862279
0.0004550141723
-0.0009618827248
-0.002070979141
-0.002571433253
-0.002384273258
-0.001775062045
-0.001124136889
-0.0006577327983
-0.0003910202087
-0.0002637775029
-0.0002129527189
-0.0002025796613
-0.0002113114822
-0.0002243151099
-0.0002403800322
-0.0002431006975
-0.0002473939921
-0.0002201717597
-0.0002037425146
-0.0001235842504
-7.411679622e-05
0.01184288461
0.01133666782
0.010425782
0.009767459548
0.009227262505
0.008635781025
0.008022956679
0.007404595975
0.006750355404
0.006027821294
0.00521157788
0.004270452813
0.003178260348
0.001925298935
0.0005594000229
-0.0007792979146
-0.001834387781
-0.002337412772
-0.002207706016
-0.001673549395
-0.001078736434
-0.0006403022523
-0.0003832652195
-0.0002569123531
-0.0002050714875
-0.0001930573967
-0.0002013021137
-0.000213719325
-0.0002303023931
-0.0002331594166
-0.0002385408728
-0.0002120776026
-0.0001968800593
-0.0001186929655
-6.90547051e-05
0.01128507483
0.0109361732
0.01019920246
0.009582540995
0.00906162339
0.008497425443
0.007902404964
0.007294277469
0.006649110732
0.005937368811
0.005135870032
0.004217696129
0.003161471027
0.00196240905
0.0006679611073
-0.0005939618651
-0.001595925341
-0.002099701508
-0.002025066069
-0.0015649403
-0.001027518248
-0.0006190037998
-0.0003733511463
-0.0002489763443
-0.0001966887597
-0.0001832320002
-0.0001910224931
-0.000202799397
-0.000219840052
-0.0002228009188
-0.0002292261448
-0.0002036049283
-0.0001895733873
-0.0001136975096
-6.404540062e-05
0.01078192407
0.01053140651
0.009944341675
0.009380489948
0.00888184876
0.008345476727
0.007770753299
0.007175026909
0.006540863396
0.005841973702
0.005057527901
0.004164625491
0.003146444562
0.002002429807
0.0007790460199
-0.0004075688778
-0.00135709104
-0.001859512796
-0.001836782234
-0.001449029678
-0.0009697797301
-0.0005929063682
-0.0003601926407
-0.0002387959894
-0.0001865997298
-0.0001719537546
-0.0001794213956
-0.0001906606525
-0.0002082459931
-0.0002114424984
-0.0002189943908
-0.0001944184096
-0.0001815885008
-0.0001084485157
-5.907081899e-05
0.01032101992
0.01013078342
0.009666046584
0.009160417152
0.008686996158
0.008178837941
0.007627174809
0.007046883896
0.006426343009
0.005742868082
0.004978050347
0.00411282365
0.003134589461
0.00204642367
0.0008932643903
-0.0002200168944
-0.00111816539
-0.001617388245
-0.001643129675
-0.001325675116
-0.0009050267165
-0.000561479253
-0.0003433945911
-0.0002261999631
-0.0001748399228
-0.000159431435
-0.0001667971271
-0.0001776583841
-0.0001958587294
-0.0001994174076
-0.0002081132456
-0.0001847713237
-0.000173120265
-0.0001031151795
-5.422904055e-05
0.0098923488
0.00973858402
0.00936899094
0.008922630441
0.008477843591
0.007998366926
0.007472014345
0.006910045367
0.006305603875
0.005639947774
0.004897170171
0.004061853651
0.003125223944
0.002093410857
0.001009340043
-3.283840079e-05
-0.0008808615018
-0.001375041472
-0.001445356583
-0.001195428602
-0.0008332415953
-0.0005244716106
-0.0003226775667
-0.0002109550591
-0.0001612129685
-0.0001454800194
-0.0001529512782
-0.0001635792312
-0.000182451241
-0.0001865023371
-0.0001963663543
-0.0001744746745
-0.0001640104812
-9.756005539e-05
-4.949465698e-05
0.009487943156
0.009356745562
0.009058642724
0.008668821248
0.008255399917
0.007804769956
0.007305210228
0.006764214445
0.006178415648
0.005533097121
0.004814884831
0.00401175984
0.003118313881
0.002143165397
0.001126822121
0.0001533044315
-0.0006460300372
-0.001133395011
-0.001244086631
-0.001058347508
-0.0007539927097
-0.0004812632746
-0.0002974317804
-0.0001925631613
-0.0001453334158
-0.0001298308777
-0.0001376913589
-0.0001483116593
-0.0001679524456
-0.00017268226
-0.0001837542108
-0.0001635673122
-0.0001543091211
-9.1833186e-05
-4.492040797e-05
0.009102209996
0.008985808106
0.008740095921
0.00840118757
0.008020603583
0.007598883492
0.007127095059
0.006609510157
0.006044939662
0.005422494923
0.004731323572
0.003962534255
0.003113602663
0.002195110606
0.001244830093
0.0003373011193
-0.0004149728334
-0.0008938652694
-0.001040524123
-0.0009150868327
-0.0006673767434
-0.0004316468441
-0.0002673713977
-0.000170777678
-0.0001270250038
-0.0001123762553
-0.0001209487594
-0.0001318153538
-0.0001523239921
-0.0001579275206
-0.0001702391164
-0.0001520153224
-0.0001439963111
-8.589698869e-05
-4.051039461e-05
0.008731539448
0.008625405412
0.008417553511
0.008122440433
0.00777478762
0.007381941816
0.006938455236
0.006446308413
0.005905404462
0.005308255078
0.004646462496
0.003913968877
0.003110641507
0.002248524048
0.001362423877
0.0005180848117
-0.0001888558502
-0.0006577159484
-0.0008357730074
-0.0007662393812
-0.0005733938127
-0.0003752659487
-0.0002320178694
-0.0001451519022
-0.000105911919
-9.283172948e-05
-0.0001024970039
-0.0001139237781
-0.0001354260766
-0.0001421392848
-0.0001557386984
-0.0001397671595
-0.0001330533171
-7.971375697e-05
-3.627202624e-05
0.008373518835
0.008274739899
0.008094246286
0.007835578464
0.007519637161
0.007155372358
0.006740319955
0.006275153631
0.00576011309
0.005190523146
0.00456026853
0.003865812044
0.003108913929
0.002302613818
0.001478609122
0.0006945627222
3.114899956e-05
-0.0004262517368
-0.0006310873734
-0.0006126442261
-0.0004723080159
-0.0003119818357
-0.000191063228
-0.0001153693261
-8.172997604e-05
-7.101095041e-05
-8.220492387e-05
-9.455762912e-05
-0.0001172027097
-0.0001252891889
-0.0001402358031
-0.0001268158756
-0.0001215015316
-7.327591323e-05
-3.221174047e-05
0.008026547217
0.007933069772
0.007772590694
0.007543623697
0.007257153321
0.006920805815
0.006534002664
0.006096867697
0.00560955021
0.005069535178
0.004472715748
0.003817741764
0.00310779052
0.002356467622
0.001592300821
0.0008655981446
0.0002438768876
-0.000200765917
-0.0004277824246
-0.0004552852734
-0.0003645321301
-0.0002417469469
-0.0001442177414
-8.108281379e-05
-5.41529685e-05
-4.665581153e-05
-5.986735473e-05
-7.356755055e-05
-9.753363931e-05
-0.0001072889134
-0.0001236638668
-0.0001131071904
-0.0001093291557
-6.653083798e-05
-2.83140811e-05
0.007689508697
0.007599839554
0.007454314707
0.007249354031
0.006989530385
0.006680036092
0.006321023064
0.00591249323
0.00545432973
0.004945565321
0.004383742135
0.00376934748
0.00310653154
0.002409078833
0.001702359743
0.001030049127
0.000448201027
1.748786545e-05
-0.0002272134569
-0.0002952959758
-0.000250674345
-0.0001646768707
-9.130254347e-05
-4.201065215e-05
-2.289547086e-05
-1.953667551e-05
-3.530722563e-05
-5.083273658e-05
-7.633202719e-05
-8.808303493e-05
-0.0001059938894
-9.861823683e-05
-9.655687094e-05
-5.946018147e-05
-2.456837487e-05
0.007361666847
0.007274758711
0.007140714143
0.006955230656
0.006719068369
0.00643500623
0.006103067865
0.00572327424
0.005295216178
0.004818961228
0.004293299009
0.00372018411
0.003104343344
0.002459395424
0.001807632208
0.001186794062
0.0006430448534
0.0002273094136
-3.075283136e-05
-0.0001339408495
-0.0001315360031
-8.106071224e-05
-3.225309953e-05
2.070099607e-06
1.230942939e-05
1.058200093e-05
-8.332493566e-06
-2.621078233e-05
-5.349291069e-05
-6.759337399e-05
-8.718167173e-05
-8.330473946e-05
-8.319054794e-05
-5.202150423e-05
-2.094759995e-05
0.007042568436
0.006957755834
0.006832809974
0.006663345059
0.006448013487
0.00618771752
0.005881902587
0.005530582451
0.005133085869
0.004690124523
0.004201337961
0.00366976941
0.003100379391
0.002506325146
0.001906953496
0.001334731478
0.0008273777556
0.0004275517181
0.0001602254897
2.74007e-05
-8.116928985e-06
8.614468248e-06
3.284434175e-05
5.128782932e-05
5.167491841e-05
4.390956155e-05
2.123310773e-05
4.311050095e-07
-2.892392842e-05
-4.575170185e-05
-6.719904569e-05
-6.7133648e-05
-6.924689655e-05
-4.418940384e-05
-1.742426286e-05
0.00673201119
0.006648944225
0.006531480212
0.006375461856
0.006178470536
0.005940170827
0.005659328912
0.005335875946
0.00496891668
0.004559526355
0.004107845817
0.003617634092
0.00309380284
0.002548800942
0.001999209629
0.00147283347
0.001000256166
0.0006171603513
0.0003443938243
0.0001872860704
0.0001184170677
0.000103670128
0.0001037463357
0.0001056663912
9.535362858e-05
8.062888344e-05
5.355352349e-05
2.922563685e-05
-2.5354916e-06
-2.248655188e-05
-4.60210269e-05
-5.007015491e-05
-5.474259621e-05
-3.593930766e-05
-1.396573806e-05
0.006429985467
0.006348557994
0.006237503503
0.00609304895
0.005912311859
0.005694257982
0.005437088131
0.00514060094
0.004803710656
0.004427660304
0.004012817601
0.003563312454
0.003083785651
0.002585782412
0.002083332156
0.001600130955
0.001160800121
0.0007951468811
0.000520459248
0.0003442111969
0.0002467270054
0.0002032099567
0.0001800105921
0.0001650830104
0.0001433993269
0.0001208667906
8.875940651e-05
6.029091912e-05
2.575124188e-05
2.271899422e-06
-2.36256648e-05
-3.207713062e-05
-3.968497073e-05
-2.724513991e-05
-1.053277244e-05
0.006136645979
0.006056933247
0.005951612428
0.005817361075
0.005651185964
0.005451735901
0.005216847559
0.004946184265
0.004638505551
0.004295085197
0.003916326221
0.003506430539
0.003069608934
0.002616357269
0.002158392809
0.001715797057
0.001308263093
0.0009606518169
0.0006872304474
0.0004966880028
0.0003753675174
0.0003061567063
0.0002610064333
0.0002292608387
0.000195751113
0.000164674685
0.0001269262812
9.37075624e-05
5.597846954e-05
2.856271679e-05
-2.439255703e-08
-1.315020477e-05
-2.410915366e-05
-1.81181656e-05
-7.100996805e-06
0.005852192318
0.005774389869
0.005674403709
0.005549373956
0.005396402576
0.005214061634
0.005000027487
0.004753859964
0.004474209665
0.004162285463
0.003818409613
0.003446617741
0.003050591295
0.002639681296
0.00222354678
0.001819091707
0.001441979242
0.001112897651
0.0008435912092
0.0006432472362
0.0005028045829
0.0004112655147
0.0003459164104
0.0002977713521
0.0002522419822
0.0002120508229
0.0001681121255
0.0001295699509
8.82164662e-05
5.64668432e-05
2.481902022e-05
6.764859317e-06
-7.989441162e-06
-8.520610594e-06
-3.620960146e-06
0.005577018181
0.005501393928
0.005406536244
0.00529001891
0.005149157278
0.004982581373
0.004787974496
0.004564835847
0.004311764362
0.004029838584
0.003719246601
0.003383683389
0.003026259457
0.002655131779
0.002278162031
0.001909461247
0.001561431934
0.001251229473
0.0009885200337
0.0007824506265
0.0006274118117
0.0005170815827
0.000433649006
0.0003699062317
0.0003124437785
0.0002627658647
0.0002121730268
0.000167795665
0.0001223726646
8.591551532e-05
5.080473536e-05
2.759224559e-05
8.590871964e-06
1.474210867e-06
-9.418908935e-08
0.005311203308
0.005238074945
0.005148268019
0.005039751458
0.004910116031
0.004758114849
0.004581555543
0.004379915177
0.004151800405
0.003898120665
0.003618918997
0.003317439742
0.002996226883
0.002662240795
0.002321801125
0.001986568228
0.00166633084
0.001375239486
0.001121267857
0.0009131300754
0.000747766101
0.0006222683489
0.0005231768027
0.0004450224488
0.0003760179557
0.0003167192727
0.0002591237548
0.0002084822036
0.000158541796
0.0001170223927
7.800988554e-05
4.94115329e-05
2.569904649e-05
1.191449518e-05
3.527794925e-06
0.005055397319
0.004985035959
0.004900233486
0.004799287762
0.004680093525
0.004541546043
0.004381655417
0.004199897805
0.003994946908
0.003767520562
0.003517539448
0.003247738032
0.002960140471
0.002660544755
0.00235397738
0.002049952221
0.001756184666
0.001484257449
0.0012407786
0.001033758534
0.000861984903
0.0007249066505
0.0006127973246
0.0005217733826
0.0004419430461
0.0003731836076
0.0003084234152
0.0002512474093
0.000196414597
0.0001495617318
0.0001062408417
7.207800432e-05
4.323498079e-05
2.271309344e-05
7.236644811e-06
0.004809275931
0.004742033848
0.0046622962
0.004568648209
0.00445928704
0.004333249158
0.004188781463
0.004025375416
0.003841810365
0.00363861459
0.00341561365
0.003175026711
0.002918417677
0.002650500531
0.002375227773
0.002100252684
0.001831648128
0.001578805011
0.001347222704
0.001144044562
0.000969353896
0.0008241125663
0.0007016846269
0.0005995515188
0.0005098208281
0.0004319545911
0.0003599661043
0.0002960557582
0.0002359537149
0.000183500062
0.0001354423308
9.552342204e-05
6.114427251e-05
3.379059288e-05
1.101223433e-05
0.004573338293
0.004509339824
0.004434551186
0.00434778382
0.004247534494
0.004132957344
0.004002558853
0.003855839116
0.00369172424
0.003510552243
0.003312105021
0.003098099265
0.002869731719
0.00263072195
0.002384167657
0.002136109923
0.001891346501
0.001657385147
0.001438837134
0.001241881981
0.00106748125
0.0009174438897
0.0007876017602
0.0006765233129
0.0005782614774
0.000492080621
0.000413141505
0.0003425738486
0.0002769996808
0.000218803927
0.0001656564669
0.0001198277452
7.955993969e-05
4.526837262e-05
1.493045735e-05
0.004348137827
0.004287727241
0.004218032385
0.004138028393
0.004046467513
0.003942614046
0.003825211918
0.00369378167
0.003547389384
0.003386215824
0.003210009295
0.003020049614
0.002817217605
0.002604381021
0.002383930092
0.002160564466
0.001938055222
0.001722344831
0.001517287164
0.001328125
0.001156345324
0.001004182973
0.0008693456801
0.0007512780467
0.0006457868653
0.0005521553526
0.0004666464388
0.0003896461146
0.0003185368183
0.0002545945643
0.0001961442525
0.0001443556956
9.798065961e-05
5.671859511e-05
1.881734656e-05
0.004130238523
0.004073339333
0.004008377837
0.003934554944
0.003850883749
0.003756694562
0.003650976369
0.003533256139
0.003402775341
0.003259563171
0.003103398952
0.002935163053
0.002755532651
0.002566620731
0.002370300109
0.002170108665
0.001969042405
0.001771662021
0.001581198059
0.001401888504
0.001235486447
0.001084213503
0.0009471651319
0.000824358015
0.0007131867963
0.0006130783956
0.0005214222829
0.0004381492859
0.0003613600891
0.000291540502
0.0002274855015
0.0001695848796
0.0001168491132
6.851838236e-05
2.284784286e-05
0.003658100523
0.003610302026
0.003556978754
0.003497542098
0.003431423868
0.003358119819
0.003277035826
0.003187736786
0.003089743582
0.002982852052
0.002866848747
0.002741941029
0.002608377055
0.002466984287
0.002318655858
0.002164982857
0.002007553932
0.00184864645
0.001690284863
0.001534969816
0.001384509245
0.001240857703
0.001104883058
0.0009774750679
0.0008584338523
0.0007478076968
0.0006448486422
0.0005492838862
0.0004603211566
0.0003776318007
0.0003005387048
0.000228509121
0.0001606926491
9.581044168e-05
3.213230772e-05
0.003144911099
0.003106994256
0.00306545042
0.003019845949
0.002969888439
0.002915208367
0.002855489513
0.002790367876
0.002719568305
0.002642815
0.002559944327
0.002470850726
0.002375577869
0.002274296467
0.002167360882
0.002055311721
0.001938880558
0.001819000646
0.001696738605
0.001573295697
0.001449862137
0.00132761618
0.001207545693
0.001090492731
0.0009770218792
0.0008675312291
0.0007621891401
0.0006610372211
0.0005639761114
0.0004707739074
0.0003811052356
0.0002943962711
0.0002099265894
0.0001264968039
4.259140605e-05
0.002720930583
0.002690852704
0.002658275288
0.002622900856
0.0025845838
0.002543039166
0.002498100355
0.002449474337
0.002397004291
0.002340423103
0.002279613146
0.002214368883
0.00214465539
0.002070378116
0.001991636611
0.001908498944
0.001821245647
0.001730142585
0.001635667978
0.001538275733
0.001438600888
0.001337209634
0.00123478936
0.001131892547
0.001029130731
0.0009269230243
0.0008257095977
0.0007256992252
0.0006271011891
0.0005298521596
0.0004338556322
0.0003386643814
0.0002437078513
0.0001479162221
4.994669817e-05
0.002375440037
0.002351255816
0.00232524435
0.002297165718
0.002266943674
0.002234348261
0.002199285636
0.002161511106
0.002120927313
0.002077292798
0.002030519972
0.00198038638
0.001926834762
0.001869686198
0.001808940819
0.001744492306
0.001676427613
0.001604740691
0.001529628222
0.001451199008
0.001369762381
0.001285529693
0.001198894135
0.001110123524
0.001019634942
0.0009276814658
0.0008346274818
0.000740630552
0.0006459195101
0.0005504673922
0.0004542690437
0.0003569978653
0.0002582769927
0.0001573170929
5.318371409e-05
0.002069837816
0.002050233094
0.002029240715
0.002006668237
0.001982480134
0.001956483301
0.00192862723
0.001898704867
0.001866657747
0.001832272907
0.001795489182
0.001756094369
0.00171403383
0.001669107582
0.001621280614
0.001570380015
0.001516406449
0.001459230779
0.001398905472
0.001335359463
0.001268707771
0.001198942797
0.001126240422
0.001050646082
0.0009723765044
0.0008914997161
0.0008082326881
0.0007226147558
0.0006348014325
0.0005447296889
0.0004524068716
0.0003575644876
0.0002599395133
0.0001589140792
5.380127148e-05
0.001800647523
0.00178467245
0.001767610642
0.001749297457
0.001729718685
0.001708709
0.001686241547
0.001662137408
0.001636360237
0.001608721984
0.001579178676
0.001547535448
0.001513744524
0.001477609388
0.001439084576
0.00139797922
0.00135425849
0.001307746455
0.001258428683
0.001206154008
0.001150937476
0.001092660166
0.001031371357
0.0009669852173
0.0008995809917
0.0008290952537
0.0007556191797
0.0006790851418
0.0005995604683
0.0005169271961
0.000431172025
0.0003420582662
0.0002494126665
0.0001527904231
5.176388341e-05
0.001555970506
0.001542900337
0.001528960581
0.001514011404
0.001498050578
0.001480935344
0.00146265261
0.001443047617
0.001422097895
0.001399638761
0.001375638529
0.00134992294
0.001322452284
0.001293044666
0.001261654772
0.001228096202
0.00119232182
0.001154145255
0.001113522605
0.001070273058
0.001024361568
0.0009756183017
0.0009240216843
0.0008694160966
0.0008117944707
0.0007510134041
0.0006870743827
0.0006198353251
0.0005492895832
0.0004752729604
0.0003977399718
0.000316465775
0.0002313200833
0.0001419648422
4.812941947e-05
0.001336236105
0.001325525013
0.001314109265
0.001301868261
0.001288805672
0.001274798442
0.001259840923
0.001243799247
0.001226658964
0.001208276571
0.001188628273
0.001167560329
0.001145039518
0.001120902216
0.001095106347
0.001067479386
0.001037971763
0.001006403923
0.0009727210739
0.0009367393691
0.0008984018246
0.0008575235868
0.0008140487275
0.0007677943903
0.0007187080258
0.0006666100236
0.000611450814
0.0005530514418
0.0004913599283
0.0004261892536
0.0003574725864
0.0002849985091
0.0002086654611
0.0001282149725
4.348663306e-05
0.001138339893
0.001129551423
0.001120186737
0.001110143095
0.001099426752
0.00108793219
0.001075657627
0.001062488151
0.001048414058
0.00103331157
0.001017162204
0.0009998323506
0.000981294099
0.0009614036214
0.0009401232542
0.0009172988598
0.000892883144
0.0008667121098
0.0008387295503
0.0008087627
0.000776747821
0.0007425051253
0.0007059653214
0.0006669438159
0.0006253680141
0.0005810507251
0.0005339179335
0.0004837812612
0.0004305659043
0.0003740820368
0.0003142527573
0.0002508846133
0.0001838958826
0.0001130867523
3.836688705e-05
0.0009640957184
0.0009568738159
0.0009491785189
0.0009409222356
0.0009321119887
0.0009226578942
0.0009125600877
0.0009017204856
0.0008901322217
0.0008776893159
0.0008643769738
0.0008500802376
0.000834775516
0.0008183381699
0.0008007351053
0.000781831426
0.0007615840716
0.0007398476449
0.0007165690524
0.0006915926159
0.0006648556775
0.0006361931097
0.0006055338307
0.0005727048169
0.0005376284548
0.0005001261374
0.0004601163549
0.0004174179491
0.0003719488456
0.0003235290874
0.0002720801954
0.0002174282905
0.0001595043144
9.814763671e-05
3.330611745e-05
0.0008132941916
0.0008073392576
0.0008009931575
0.0007941818231
0.0007869120842
0.0007791077177
0.0007707696542
0.0007618146443
0.0007522375348
0.0007419481711
0.0007309344119
0.0007190981491
0.0007064193511
0.0006927911626
0.0006781848338
0.0006624840102
0.0006456505307
0.0006275580019
0.0006081584331
0.0005873151984
0.0005649704925
0.0005409778008
0.0005152701639
0.0004876922929
0.0004581696381
0.0004265403044
0.0003927249334
0.0003565586033
0.0003179615655
0.0002767713917
0.0002329146937
0.0001862399358
0.0001366904105
8.413797585e-05
2.855536426e-05
0.0006878890994
0.0006829373372
0.0006776596244
0.0006719930341
0.0006659438353
0.0006594473142
0.0006525046965
0.0006450452197
0.0006370648449
0.0006284868277
0.0006193010383
0.000609423781
0.0005988379768
0.0005874521989
0.0005752415918
0.0005621062176
0.0005480126961
0.0005328519425
0.0005165815035
0.0004990827804
0.0004803040539
0.0004601173068
0.0004384619444
0.0004152013576
0.000390267366
0.0003635166941
0.0003348761935
0.0003041994511
0.0002714128916
0.000236372814
0.0001990125462
0.0001592003257
0.0001168877544
7.19687569e-05
2.442782071e-05
0.00058893814
0.0005847480352
0.0005802815289
0.0005754846464
0.0005703629961
0.0005648610191
0.0005589799675
0.0005526590554
0.0005458949592
0.0005386216844
0.0005308305865
0.0005224495916
0.0005134639475
0.0005037947744
0.000493420437
0.000482254506
0.0004702677374
0.0004573655151
0.0004435104177
0.0004285992243
0.0004125860673
0.0003953591061
0.0003768642822
0.0003569817913
0.0003356504853
0.000312744311
0.0002881974365
0.0002618808792
0.0002337284857
0.000203614047
0.0001714783346
0.0001372071053
0.0001007594375
6.204679885e-05
2.106106224e-05
0.000518922546
0.0005152585673
0.0005113525509
0.0005071568372
0.0005026765009
0.0004978625003
0.0004927160513
0.0004871834688
0.0004812618953
0.0004748930081
0.0004680692029
0.0004607267282
0.0004528525137
0.0004443767085
0.0004352800567
0.0004254859106
0.0004149681453
0.0004036427058
0.0003914760462
0.0003783762819
0.0003643021567
0.0003491538912
0.0003328827024
0.0003153814646
0.000296594835
0.0002764098783
0.0002547668899
0.000231550186
0.0002066997687
0.0001801025548
0.0001517050927
0.0001214055914
8.916793369e-05
5.491465358e-05
1.864088849e-05
0.000481119323
0.0004777346252
0.0004741262004
0.0004702498113
0.0004661102147
0.000461661909
0.0004569060655
0.0004517928568
0.0004463196599
0.0004404323225
0.0004341237988
0.0004273348687
0.0004200533856
0.0004122144236
0.0004038000503
0.000394738968
0.0003850068069
0.0003745253102
0.0003632631401
0.0003511346648
0.0003381012891
0.0003240699218
0.0003089948657
0.0002927760648
0.0002753616198
0.0002566459457
0.0002365730184
0.0002150346218
0.0001919744863
0.0001672868658
0.0001409217954
0.00011278432
8.284113456e-05
5.102056449e-05
1.731935946e-05
0.004261611125
0.004858110997
0.004700675045
0.005146513757
0.005087172281
0.005565162046
0.00561617489
0.006115332726
0.006254563402
0.006792769008
0.007014950168
0.007614431982
0.007922559153
0.008619262254
0.009034026718
0.009896441131
0.01048585728
0.01168565727
0.01270456082
0.01477932994
0.004262879714
0.004854303673
0.004703916088
0.005141543033
0.005091806438
0.005558221888
0.005622412914
0.006105472129
0.006262784506
0.006778528137
0.007025649859
0.007593230723
0.007936311861
0.008585968133
0.009051054669
0.009839329925
0.01050208504
0.01156896518
0.01266064139
0.01432926483
0.00426462161
0.004851489689
0.004705571893
0.005138307769
0.00509368132
0.005553980904
0.005624411303
0.006099425585
0.006265066031
0.006769076643
0.007028643181
0.007576937945
0.007940864326
0.008554890692
0.009058206721
0.009772983467
0.01050638283
0.01139742963
0.01255415123
0.01361233538
0.004268710781
0.00484743481
0.004708567361
0.005132655038
0.005097524282
0.005546276373
0.005629054126
0.006088836302
0.006270195704
0.006754124941
0.007033348396
0.007554696177
0.007942709783
0.008518756546
0.0090498247
0.009705017896
0.01045817037
0.01122475768
0.01229749023
0.01298691768
0.004273962294
0.004843250247
0.004710939413
0.005126943471
0.005100628444
0.00553829477
0.005633004316
0.006077010319
0.006275051544
0.00673567381
0.007038680456
0.007524643187
0.007945925752
0.008467804901
0.009039583864
0.009612780385
0.01038684194
0.01102085503
0.01197994266
0.01247431062
0.004279910676
0.00483784582
0.004713728057
0.005120080121
0.005103977789
0.005529119683
0.005636411154
0.006064141725
0.006277693559
0.006716510116
0.007038703662
0.007494077568
0.007938247045
0.008415349763
0.009007978288
0.009513499167
0.01027567995
0.01079968388
0.0116336646
0.01199734335
0.004286132197
0.004831511281
0.00471687449
0.005111852133
0.005107935652
0.005517651505
0.005640669668
0.006047667365
0.00628105391
0.006692126631
0.007037854462
0.007456817354
0.007924221062
0.008355474058
0.008956625897
0.009405739776
0.01012413529
0.01057091666
0.01126067057
0.01154029162
0.004292602256
0.004824481563
0.00471983283
0.005102897472
0.005111237962
0.005505341961
0.005643457404
0.00603002055
0.006281545004
0.006665769294
0.007031491623
0.007416070885
0.007899227726
0.008289391706
0.008883913074
0.009286547826
0.009940320848
0.01032945601
0.01087594351
0.01110232369
0.004299557571
0.004816064906
0.004723252047
0.005092120972
0.005114927642
0.005490674725
0.005645969446
0.006009502511
0.006279935152
0.006636157672
0.007019009958
0.007371666102
0.0078607306
0.008217767332
0.0087876406
0.009155669901
0.009729646089
0.01007348129
0.01049312491
0.01067874394
0.004306762208
0.004806680164
0.004726443128
0.005080159467
0.005118036657
0.005474371804
0.005647003207
0.005986727988
0.006274879349
0.006603532671
0.006999016584
0.007323094299
0.007807762361
0.00813880216
0.008669169467
0.0090106707
0.00949860572
0.009803420611
0.01011823284
0.01026724571
0.00431432622
0.00479578342
0.004729674801
0.005066480017
0.005120639249
0.005456062525
0.005646133386
0.005961664585
0.006265177139
0.006568149927
0.006969682151
0.007270188219
0.007739186544
0.00805068921
0.008530695494
0.008849118978
0.009253535182
0.009520370366
0.009753270272
0.009868275263
0.004322068164
0.004783437536
0.004732639656
0.005051119484
0.005122336282
0.005435730045
0.00564274067
0.005934239264
0.006249858184
0.006529747426
0.00692990696
0.007211932981
0.007654939822
0.007951258524
0.008374869393
0.00866987624
0.008998993278
0.009226854961
0.009398221865
0.0094823719
0.004329932328
0.004769444264
0.004735147032
0.005033989634
0.005122644848
0.005413416777
0.005635929736
0.005904514914
0.006227720447
0.006487962706
0.006878827131
0.007146813516
0.007555679507
0.007838251934
0.008204369934
0.008473078363
0.0087377342
0.008926255033
0.009051845555
0.009109281912
0.004337791369
0.004753665542
0.004736944147
0.00501499549
0.005121077859
0.00538908937
0.005624863308
0.005872382241
0.006197763652
0.006442106701
0.006816029132
0.007073065795
0.007442451946
0.007710045342
0.008021406757
0.008260205909
0.008471322433
0.008621934049
0.008712827799
0.008748238354
0.004345476588
0.00473600153
0.004737657732
0.004994117304
0.005116991572
0.005362746256
0.005608634248
0.005837570667
0.006159184377
0.006391100561
0.00674152541
0.006988814577
0.007316379813
0.007565898604
0.007827484977
0.008033651411
0.008200631506
0.00831657037
0.00838026168
0.00839811156
0.004352780014
0.004716339183
0.004736861282
0.00497132455
0.005109681564
0.005334329257
0.00558636895