/*--------------------------------*- C++ -*----------------------------------*\
| =========                 |                                                 |
| \\      /  F ield         | OpenFOAM: The Open Source CFD Toolbox           |
|  \\    /   O peration     | Version:  v1806                                 |
|   \\  /    A nd           | Web:      www.OpenFOAM.com                      |
|    \\/     M anipulation  |                                                 |
\*---------------------------------------------------------------------------*/
FoamFile
{
    version     2.0;
    format      ascii;
    class       volVectorField;
    location    "1000";
    object      U;
}
// * * * * * * * * * * * * * * * * * * * * * * * * * * * * * * * * * * * * * //

dimensions      [0 1 -1 0 0 0 0];


internalField   nonuniform List<vector> 
2475
(
(0.9726198269 0.006441890991 0)
(0.9437972802 0.006970428871 0)
(0.9113971815 0.006846366155 0)
(0.8757730919 0.0066671372 0)
(0.838151596 0.006444368851 0)
(0.7985824974 0.006184218306 0)
(0.7568548881 0.005903307514 0)
(0.7128876144 0.005608251861 0)
(0.6666667275 0.005298651614 0)
(0.6181913718 0.004971910797 0)
(0.5675049962 0.004620609091 0)
(0.5148206619 0.004231409072 0)
(0.4605598679 0.0037792531 0)
(0.4057698737 0.003223711488 0)
(0.3522356665 0.002513975724 0)
(0.3034888016 0.00163149389 0)
(0.263801291 0.0006732523549 0)
(0.2370824064 -0.0001113038959 0)
(0.2214884246 -0.0005278102584 0)
(0.2135571984 -0.0005827157071 0)
(0.2080149756 -0.0004455111892 0)
(0.2038267522 -0.0002723546228 0)
(0.1983448324 -0.00014382074 0)
(0.1932388097 -6.410536596e-05 0)
(0.1865718994 -2.279842512e-05 0)
(0.181095997 1.295541884e-06 0)
(0.1740530992 1.328541595e-05 0)
(0.1690255604 2.198487667e-05 0)
(0.1619518401 2.628704041e-05 0)
(0.1577837016 2.90209568e-05 0)
(0.1506579153 2.980952916e-05 0)
(0.147634703 2.712787694e-05 0)
(0.1401993212 2.936271819e-05 0)
(0.1385680505 2.394817533e-05 0)
(0.1303337034 2.552215238e-05 0)
(0.9894692875 0.005967315235 0)
(0.9916698013 0.007692696284 0)
(0.9914278359 0.008069190812 0)
(0.9889669871 0.008456971372 0)
(0.9848536892 0.008806503937 0)
(0.9794472142 0.009101142228 0)
(0.9719962985 0.009369111894 0)
(0.96277538 0.00962512542 0)
(0.950997418 0.009859757239 0)
(0.9370596553 0.01007233469 0)
(0.9199141353 0.01023863157 0)
(0.9001762637 0.01034089165 0)
(0.8765662285 0.01031205932 0)
(0.8503103388 0.01007653383 0)
(0.820204272 0.009476601323 0)
(0.789167409 0.008392892366 0)
(0.7568444435 0.0067812943 0)
(0.7283144609 0.004939501346 0)
(0.7014247478 0.003311218731 0)
(0.6795312401 0.002240655725 0)
(0.6570027551 0.001672639591 0)
(0.6379270072 0.001431081141 0)
(0.6160533433 0.001302449158 0)
(0.5977259013 0.00122528224 0)
(0.5755855382 0.001125586307 0)
(0.5583152125 0.001042346322 0)
(0.5362187584 0.0009313989103 0)
(0.5208682968 0.0008502514293 0)
(0.4990243071 0.0007448706836 0)
(0.4863872274 0.0006790553024 0)
(0.4645929403 0.0005873008891 0)
(0.4553791982 0.0005399945116 0)
(0.4328990704 0.0004667213809 0)
(0.4278113937 0.0004404496874 0)
(0.4032340276 0.0003823107278 0)
(0.9897046726 0.00631604107 0)
(0.992292325 0.007847612055 0)
(0.9935161546 0.008060065468 0)
(0.9945350691 0.008431045455 0)
(0.9944170554 0.008818709252 0)
(0.9951737441 0.009169108656 0)
(0.9945309234 0.009504625777 0)
(0.9946851361 0.009861049554 0)
(0.9930293876 0.01021249592 0)
(0.9922201119 0.01058055646 0)
(0.9890112609 0.01091694636 0)
(0.9866354318 0.01122939505 0)
(0.981054857 0.01140588174 0)
(0.9763319949 0.01138616453 0)
(0.9674553213 0.01092786488 0)
(0.9598022191 0.009914067646 0)
(0.9474480864 0.00823412275 0)
(0.9378808921 0.006297180906 0)
(0.9239635748 0.004602538672 0)
(0.9145984449 0.003586320207 0)
(0.9001228664 0.00310715879 0)
(0.8908299853 0.002977474831 0)
(0.8747787304 0.002898206412 0)
(0.8647317658 0.002861928824 0)
(0.8462992754 0.002731250438 0)
(0.8355450224 0.002631830168 0)
(0.8145947099 0.002436091799 0)
(0.803750062 0.002310096242 0)
(0.7802692971 0.002086201384 0)
(0.7702093823 0.001967588886 0)
(0.744063605 0.001737160288 0)
(0.7358991011 0.001648934118 0)
(0.706645733 0.001426463361 0)
(0.7017346959 0.001384993947 0)
(0.6683561689 0.001180756236 0)
(0.9898963796 0.005688307547 0)
(0.992314471 0.007216556843 0)
(0.9929098155 0.007565944961 0)
(0.9946161817 0.008042586841 0)
(0.9941535636 0.00851710022 0)
(0.9959498802 0.008944074891 0)
(0.9953446982 0.009328112674 0)
(0.9972490906 0.009745272333 0)
(0.9963764541 0.01014033188 0)
(0.9984681446 0.01057406761 0)
(0.9973100831 0.01096001101 0)
(0.9995949009 0.01135205472 0)
(0.9980096396 0.01159040603 0)
(1.000368154 0.01166974527 0)
(0.9979660621 0.01129444939 0)
(0.9998506755 0.01041337132 0)
(0.9956461451 0.008850942213 0)
(0.9960839142 0.007056548047 0)
(0.9894749689 0.005437033441 0)
(0.9889353601 0.004471545353 0)
(0.9810000244 0.003978664245 0)
(0.9805976871 0.003851212351 0)
(0.9715599792 0.003744337792 0)
(0.9710578269 0.00372655547 0)
(0.9602217641 0.003583417935 0)
(0.9592977173 0.003522624237 0)
(0.9461896145 0.003317680173 0)
(0.9448489619 0.003237684382 0)
(0.9291377901 0.002994341987 0)
(0.9275673471 0.002921239005 0)
(0.9089430489 0.002653381454 0)
(0.9074735158 0.002607186979 0)
(0.8855959691 0.002327292609 0)
(0.8846622532 0.002322238683 0)
(0.859122783 0.002056890405 0)
(0.9904659661 0.005271878233 0)
(0.9927159113 0.006920750724 0)
(0.9928047908 0.007431645698 0)
(0.9948194608 0.007947585766 0)
(0.9940037334 0.008436245412 0)
(0.9961196218 0.008876466814 0)
(0.9951885934 0.009248007929 0)
(0.9974866168 0.009659346365 0)
(0.9963791565 0.01003052974 0)
(0.9989880953 0.01044999931 0)
(0.9978140086 0.0108037885 0)
(1.00086929 0.0111752056 0)
(0.9997203041 0.01137994336 0)
(1.003322036 0.01144780888 0)
(1.002143686 0.01107462174 0)
(1.005980053 0.01025243674 0)
(1.003980832 0.008787490807 0)
(1.006900677 0.007110100265 0)
(1.003024705 0.005554237543 0)
(1.004955418 0.004610924611 0)
(1.000104513 0.004105235316 0)
(1.002367558 0.003980440022 0)
(0.9972348841 0.003879955073 0)
(0.9998788253 0.003893450365 0)
(0.9940769429 0.003778846481 0)
(0.996745222 0.003760399646 0)
(0.9899376515 0.003587671589 0)
(0.9924225883 0.003548257792 0)
(0.984384595 0.003334593157 0)
(0.9865325801 0.003296975842 0)
(0.9770759278 0.00305615638 0)
(0.9787358924 0.003039060441 0)
(0.9676950816 0.002786086383 0)
(0.9686794192 0.002801411309 0)
(0.9559145625 0.002572382199 0)
(0.9912784558 0.005054128513 0)
(0.9930485715 0.006636101878 0)
(0.9930755859 0.007213437844 0)
(0.9948995399 0.007719670345 0)
(0.9942557689 0.008209573947 0)
(0.996128439 0.008662684536 0)
(0.9954329815 0.009041110032 0)
(0.9974409476 0.009456154196 0)
(0.9966523579 0.009827991097 0)
(0.9988927044 0.01024191675 0)
(0.9981435138 0.01058768348 0)
(1.000737311 0.01094165475 0)
(1.00016135 0.01113283484 0)
(1.003208287 0.0111844792 0)
(1.002827072 0.01082695437 0)
(1.006072767 0.01005088657 0)
(1.005246573 0.008691089423 0)
(1.007652264 0.007121142061 0)
(1.00539197 0.005648562556 0)
(1.006783367 0.004730734616 0)
(1.003881613 0.00422659652 0)
(1.005509691 0.004086844585 0)
(1.002776802 0.003982027601 0)
(1.004798091 0.003985729788 0)
(1.00203948 0.00387723589 0)
(1.004167238 0.003854063382 0)
(1.001197385 0.003694723075 0)
(1.0032505 0.003652931339 0)
(0.9999802449 0.00345925289 0)
(1.001810924 0.003420695933 0)
(0.9981759491 0.003206638265 0)
(0.9996208805 0.003188728991 0)
(0.9955567453 0.002969832207 0)
(0.9964119387 0.002982669723 0)
(0.9918372463 0.002797054883 0)
(0.9921128679 0.004903390352 0)
(0.993252308 0.006332884066 0)
(0.9934970198 0.006981290288 0)
(0.994851918 0.007506662261 0)
(0.9946644111 0.008018734534 0)
(0.9960097314 0.008492434531 0)
(0.995837878 0.008888826644 0)
(0.997264787 0.009303756846 0)
(0.9970807245 0.0096782288 0)
(0.9986604434 0.01007622501 0)
(0.9985926967 0.01041194697 0)
(1.000429806 0.01073539449 0)
(1.000604888 0.01090951502 0)
(1.002779401 0.01093188739 0)
(1.003212135 0.0105849711 0)
(1.005486126 0.009840273595 0)
(1.00560565 0.008576663671 0)
(1.007054621 0.00710198798 0)
(1.005976868 0.005709551005 0)
(1.006404478 0.004806730023 0)
(1.004826947 0.004294679391 0)
(1.005367214 0.004123500038 0)
(1.00408921 0.004003208061 0)
(1.004946138 0.003985228412 0)
(1.0038437 0.003877304555 0)
(1.004795312 0.003843942484 0)
(1.003730288 0.003695215389 0)
(1.004653207 0.003647878338 0)
(1.003575771 0.003469971457 0)
(1.00439317 0.003427002335 0)
(1.003278114 0.00323239451 0)
(1.003916721 0.003209449677 0)
(1.002736507 0.003014381717 0)
(1.003106909 0.003019855929 0)
(1.001810702 0.002865743231 0)
(0.9928378885 0.004800774026 0)
(0.9934777831 0.006064295215 0)
(0.9939075289 0.00676687067 0)
(0.994842249 0.007307890465 0)
(0.9950326569 0.007825408797 0)
(0.9959349206 0.00830431298 0)
(0.9961804254 0.008708133643 0)
(0.9971436764 0.00911571856 0)
(0.9974235371 0.009487152154 0)
(0.9985023808 0.009867737953 0)
(0.9989284706 0.01019161428 0)
(1.000219424 0.01048791925 0)
(1.000897816 0.01064607477 0)
(1.002468693 0.01064691006 0)
(1.003392606 0.01031290259 0)
(1.005021778 0.009607267013 0)
(1.005668519 0.008439312006 0)
(1.006535724 0.007066353291 0)
(1.00611544 0.005756310521 0)
(1.006014751 0.004876736431 0)
(1.005128524 0.004359773138 0)
(1.005074842 0.004164901565 0)
(1.004476598 0.004030726077 0)
(1.004700695 0.003997773972 0)
(1.004298335 0.003888563203 0)
(1.004621858 0.003848967307 0)
(1.004286872 0.003704642135 0)
(1.004616634 0.003653126966 0)
(1.00430055 0.003481380063 0)
(1.00459354 0.003434067892 0)
(1.00427555 0.0032471037 0)
(1.004501839 0.003218912071 0)
(1.004165463 0.003034207483 0)
(1.004290881 0.003032335553 0)
(1.003906145 0.002895266128 0)
(0.9934328987 0.004737023403 0)
(0.9937907725 0.005835052616 0)
(0.9942611563 0.006555992991 0)
(0.9949435413 0.007106241702 0)
(0.9953179418 0.007621215706 0)
(0.9959788652 0.008103925607 0)
(0.9964236383 0.008515431588 0)
(0.9971487914 0.008920975247 0)
(0.9976483904 0.009290192665 0)
(0.9984793297 0.009658895795 0)
(0.9991268082 0.009970539321 0)
(1.000152235 0.01024524874 0)
(1.001033985 0.01038630574 0)
(1.002309551 0.010371846 0)
(1.003401159 0.01004863538 0)
(1.004719381 0.009385609227 0)
(1.005545695 0.008306642917 0)
(1.006181705 0.007035479808 0)
(1.006040621 0.005804244264 0)
(1.005785714 0.004951762133 0)
(1.005184661 0.004428549357 0)
(1.004938054 0.004211875688 0)
(1.004578895 0.004059540327 0)
(1.004586703 0.004011143018 0)
(1.004406071 0.003894971379 0)
(1.004520345 0.003848674882 0)
(1.004398645 0.003703889101 0)
(1.004538241 0.003648859108 0)
(1.004425943 0.003479783198 0)
(1.004556568 0.003429599747 0)
(1.00443246 0.00324779417 0)
(1.0045341 0.003215857147 0)
(1.004385277 0.003039389471 0)
(1.004436961 0.003031459534 0)
(1.004242952 0.00290848171 0)
(0.9939351891 0.004693726187 0)
(0.9941638577 0.005639125264 0)
(0.9945828931 0.006349460767 0)
(0.9951327909 0.006906030507 0)
(0.9955575691 0.007415411118 0)
(0.9961125793 0.007899220745 0)
(0.9966128638 0.008314680959 0)
(0.9972425759 0.008717595602 0)
(0.9978089147 0.009080563709 0)
(0.9985436756 0.009437011838 0)
(0.9992519181 0.009733030468 0)
(1.000170052 0.009987439377 0)
(1.00109022 0.01010985996 0)
(1.002233469 0.0100836704 0)
(1.003329008 0.009770751956 0)
(1.004501847 0.009152317485 0)
(1.005345271 0.008158218022 0)
(1.005910381 0.006988578547 0)
(1.005881803 0.005836029986 0)
(1.005633211 0.005015685887 0)
(1.005152424 0.004488808895 0)
(1.00487837 0.004253820981 0)
(1.004592989 0.004083672593 0)
(1.004547806 0.004021776768 0)
(1.004423444 0.003898523722 0)
(1.004484418 0.003847559983 0)
(1.004413411 0.003702477989 0)
(1.004505907 0.003645934154 0)
(1.004440037 0.003479560813 0)
(1.00453112 0.003427989448 0)
(1.004449267 0.003250981881 0)
(1.004520291 0.003216133241 0)
(1.004410231 0.003047132162 0)
(1.004442758 0.003033757599 0)
(1.004285163 0.002922826549 0)
(0.9943837446 0.00465870186 0)
(0.9945562462 0.00547353184 0)
(0.9949005172 0.006152873168 0)
(0.9953696007 0.006709089811 0)
(0.9957872773 0.007208999265 0)
(0.9962915251 0.007688548503 0)
(0.9967885125 0.008103619998 0)
(0.9973775847 0.008502590605 0)
(0.9979500052 0.008857685732 0)
(0.9986449033 0.009202463525 0)
(0.9993529077 0.009483093287 0)
(1.000219891 0.009719683824 0)
(1.001119313 0.009825530495 0)
(1.002186197 0.009791557268 0)
(1.003231917 0.009491145173 0)
(1.004314854 0.008918577539 0)
(1.005125278 0.008006825148 0)
(1.005667475 0.006936853102 0)
(1.005699121 0.005863229819 0)
(1.005501353 0.005078333595 0)
(1.005094315 0.004550730276 0)
(1.004839471 0.004299420385 0)
(1.004585296 0.004112015462 0)
(1.004530875 0.004036537411 0)
(1.004422313 0.003905646994 0)
(1.004469058 0.003849286211 0)
(1.004411496 0.003703242451 0)
(1.004490767 0.003644313461 0)
(1.004437969 0.00348014646 0)
(1.004517678 0.003426343611 0)
(1.004448472 0.003253929114 0)
(1.004510042 0.003215487397 0)
(1.004412316 0.003053992951 0)
(1.004438142 0.003034959105 0)
(1.004293896 0.002935430909 0)
(0.9948011749 0.004624916669 0)
(0.9949460689 0.005332555889 0)
(0.9952243859 0.005967586163 0)
(0.9956309421 0.006514482342 0)
(0.9960231246 0.007001608946 0)
(0.9964924513 0.00747239954 0)
(0.9969686896 0.007883630171 0)
(0.9975306016 0.008277343741 0)
(0.9980906145 0.008623573042 0)
(0.9987590226 0.008956556318 0)
(0.9994487798 0.009221988154 0)
(1.000277544 0.009441984505 0)
(1.001140063 0.009532909355 0)
(1.002144375 0.009493535356 0)
(1.003128362 0.009207180063 0)
(1.004136556 0.008680164194 0)
(1.004903652 0.00784755018 0)
(1.005432519 0.006873800782 0)
(1.005509658 0.005878569401 0)
(1.005369623 0.005131722136 0)
(1.005026052 0.004606695675 0)
(1.004801004 0.004341336129 0)
(1.004570962 0.004137885466 0)
(1.00451702 0.004049107981 0)
(1.004417461 0.003910654753 0)
(1.004457744 0.003848720129 0)
(1.004407371 0.003701873645 0)
(1.004479548 0.003640557376 0)
(1.004434761 0.003479053536 0)
(1.00450749 0.003423161966 0)
(1.004447348 0.003255949406 0)
(1.004502363 0.003214129127 0)
(1.004414422 0.00306061785 0)
(1.004435215 0.003036470923 0)
(1.004300877 0.002947734485 0)
(0.9951980964 0.00458932721 0)
(0.9953263559 0.005209999018 0)
(0.9955546342 0.005794249897 0)
(0.9959077725 0.006323155213 0)
(0.9962696025 0.006794542792 0)
(0.9967074135 0.007252695678 0)
(0.9971585514 0.007656429811 0)
(0.9976942681 0.008042768812 0)
(0.9982359924 0.00837884021 0)
(0.9988786251 0.008699406992 0)
(0.9995445537 0.008949939295 0)
(1.00033595 0.009154531496 0)
(1.001157415 0.009232681031 0)
(1.002101815 0.00919042433 0)
(1.003023276 0.008920157162 0)
(1.003961715 0.008438480326 0)
(1.004685058 0.007682206073 0)
(1.005200974 0.006801084418 0)
(1.005317444 0.005883790223 0)
(1.005233 0.005177630966 0)
(1.004950148 0.004659121265 0)
(1.004757367 0.004382367914 0)
(1.00455168 0.004164640049 0)
(1.00450097 0.004062947226 0)
(1.004410206 0.003917256112 0)
(1.004445804 0.00384939385 0)
(1.00440196 0.003701899362 0)
(1.004468345 0.003637802968 0)
(1.004430632 0.003479195048 0)
(1.00449785 0.003420825888 0)
(1.004445506 0.003259058986 0)
(1.004495549 0.003213536261 0)
(1.004416059 0.003068075326 0)
(1.004433353 0.003038942771 0)
(1.004309448 0.002960013304 0)
(0.9955793726 0.004550001168 0)
(0.9956960771 0.00509962136 0)
(0.995888305 0.00563193753 0)
(0.9961958565 0.006135636232 0)
(0.9965266335 0.00658808903 0)
(0.9969336272 0.007030178081 0)
(0.9973585374 0.007422751571 0)
(0.9978666681 0.007799358483 0)
(0.9983870664 0.008124036422 0)
(0.9990020977 0.008431686735 0)
(0.9996412792 0.008667832377 0)
(1.000393893 0.008858368175 0)
(1.001172657 0.008925979456 0)
(1.002057925 0.008883223492 0)
(1.002918233 0.008630783827 0)
(1.003790185 0.008193819215 0)
(1.004471103 0.007510647934 0)
(1.004972971 0.006717895966 0)
(1.005123856 0.005877247785 0)
(1.005091014 0.005213806361 0)
(1.004866736 0.004705525212 0)
(1.004707184 0.004420070752 0)
(1.004526971 0.004189899107 0)
(1.004481284 0.004075762695 0)
(1.004400037 0.003923162605 0)
(1.004431987 0.003849038771 0)
(1.004394777 0.00370102137 0)
(1.004455909 0.003633801674 0)
(1.00442538 0.00347834931 0)
(1.004487136 0.003417272211 0)
(1.00444306 0.003261295184 0)
(1.004488034 0.003212026023 0)
(1.004417582 0.003074812435 0)
(1.004431531 0.003041124003 0)
(1.004317662 0.002971194664 0)
(0.9959475678 0.004506445418 0)
(0.9960557174 0.004996796744 0)
(0.9962222947 0.005479220341 0)
(0.9964918205 0.005952505322 0)
(0.9967926453 0.006382814404 0)
(0.9971692934 0.006805931759 0)
(0.9975677153 0.007184060086 0)
(0.9980468943 0.007548510167 0)
(0.9985436166 0.007860571448 0)
(0.9991289461 0.008154760665 0)
(0.9997390555 0.008377023372 0)
(1.000451292 0.008554749214 0)
(1.001186358 0.008613967213 0)
(1.002013177 0.008572832738 0)
(1.002814258 0.008339698835 0)
(1.003622767 0.007946516184 0)
(1.004262951 0.007333084125 0)
(1.004749538 0.006624124026 0)
(1.004930114 0.005858409218 0)
(1.004944228 0.005239378435 0)
(1.004776021 0.004745191999 0)
(1.004650049 0.004454069908 0)
(1.004496426 0.00421375961 0)
(1.004457388 0.004087996121 0)
(1.004386535 0.003929128695 0)
(1.004415852 0.003848580215 0)
(1.004385467 0.003700311228 0)
(1.004442017 0.003629707965 0)
(1.004418396 0.003477713605 0)
(1.004475548 0.003413755769 0)
(1.004439076 0.003263841204 0)
(1.004480036 0.003210851018 0)
(1.004417866 0.003081863398 0)
(1.004429589 0.003044107905 0)
(1.004326118 0.002982162408 0)
(0.996304146 0.004458140835 0)
(0.9964058411 0.004897743038 0)
(0.9965540396 0.00533377848 0)
(0.9967924181 0.00577361847 0)
(0.9970654705 0.006178939597 0)
(0.9974125526 0.006580649609 0)
(0.9977845991 0.006941510347 0)
(0.9982338945 0.007291412233 0)
(0.9987049853 0.007589607708 0)
(0.9992587118 0.007869780423 0)
(0.9998377309 0.008078660909 0)
(1.000508259 0.008244785217 0)
(1.001198961 0.008297675402 0)
(1.001968292 0.00826008189 0)
(1.002712251 0.008047473704 0)
(1.003460413 0.007696891259 0)
(1.004061587 0.007149698703 0)
(1.004531785 0.00651968771 0)
(1.004737349 0.005826669808 0)
(1.004793464 0.005253237658 0)
(1.004678231 0.004776853245 0)
(1.004585757 0.004483208407 0)
(1.004459576 0.004235263034 0)
(1.004428771 0.004098857777 0)
(1.004369204 0.003934469621 0)
(1.004396964 0.003847368361 0)
(1.004373678 0.003699107555 0)
(1.004426243 0.003624835442 0)
(1.004409628 0.003476548257 0)
(1.004462434 0.003409522375 0)
(1.004433782 0.003265880324 0)
(1.004470912 0.003209221051 0)
(1.004417315 0.003088377917 0)
(1.004427129 0.003047061538 0)
(1.004334028 0.002992132387 0)
(0.9966499748 0.004404714203 0)
(0.9967467444 0.004799856901 0)
(0.9968815579 0.005193403611 0)
(0.9970945823 0.005598642088 0)
(0.9973426377 0.005976819947 0)
(0.9976613163 0.006355107526 0)
(0.9980073837 0.006696422623 0)
(0.9984263279 0.007029575036 0)
(0.9988702736 0.007312732391 0)
(0.9993908221 0.007578363945 0)
(0.9999370882 0.007774382205 0)
(1.000564904 0.007930024429 0)
(1.001210939 0.007978501159 0)
(1.001923979 0.007946065156 0)
(1.002613091 0.007754871615 0)
(1.003303977 0.007445396657 0)
(1.003867876 0.006960808802 0)
(1.004320686 0.006404688617 0)
(1.00454666 0.00578166781 0)
(1.004639572 0.005254478936 0)
(1.004573731 0.004799393662 0)
(1.004514144 0.004506467583 0)
(1.004416001 0.004253646275 0)
(1.004394875 0.00410785887 0)
(1.004347512 0.00393891958 0)
(1.004374823 0.003845320036 0)
(1.004358964 0.00369741746 0)
(1.004408275 0.003619311446 0)
(1.004398559 0.00347498684 0)
(1.004447755 0.003404832587 0)
(1.00442655 0.003267612483 0)
(1.004460663 0.003207494714 0)
(1.004415307 0.003094592929 0)
(1.004423957 0.003050337634 0)
(1.004341452 0.00300145926 0)
(0.9969854633 0.004345631459 0)
(0.9970783923 0.004701182335 0)
(0.9972032264 0.005055968362 0)
(0.9973955035 0.005426808593 0)
(0.9976215002 0.005776539445 0)
(0.9979132804 0.006129850793 0)
(0.9982340296 0.006449908758 0)
(0.9986225809 0.006764443108 0)
(0.9990383618 0.007031532452 0)
(0.9995245593 0.007282148322 0)
(1.00003682 0.007465819125 0)
(1.000621307 0.007611968074 0)
(1.001222729 0.007657733454 0)
(1.001880931 0.007631731391 0)
(1.002517585 0.007462495877 0)
(1.003154227 0.007192354351 0)
(1.003682556 0.006766650274 0)
(1.004117082 0.006279257425 0)
(1.004359082 0.005723152359 0)
(1.004483465 0.005242306463 0)
(1.004462985 0.004811707633 0)
(1.004435155 0.004522757514 0)
(1.004365306 0.004268009788 0)
(1.00435513 0.004114339989 0)
(1.004320868 0.003942011636 0)
(1.004348842 0.003842117883 0)
(1.004340826 0.003694978954 0)
(1.004387566 0.003612938684 0)
(1.004384878 0.003472799217 0)
(1.004430901 0.003399505166 0)
(1.004417238 0.0032687736 0)
(1.004448706 0.003205462308 0)
(1.00441176 0.003100200238 0)
(1.004419603 0.003053615473 0)
(1.004347956 0.003009862242 0)
(0.9973106544 0.004280414042 0)
(0.9974004338 0.004600332853 0)
(0.9975176148 0.004919745402 0)
(0.997692656 0.005257255253 0)
(0.9978993852 0.005578116611 0)
(0.9981659988 0.005905422401 0)
(0.9984623362 0.006203079567 0)
(0.9988208297 0.006497547095 0)
(0.9992079352 0.006747754952 0)
(0.999659067 0.006982958889 0)
(1.00013654 0.007154787994 0)
(1.000677496 0.007292286288 0)
(1.001234751 0.007336786742 0)
(1.001839791 0.007318133227 0)
(1.002426475 0.00717102875 0)
(1.003011823 0.006938179616 0)
(1.003506231 0.006567557676 0)
(1.003921681 0.006143683658 0)
(1.00417556 0.005651079782 0)
(1.004326081 0.005216116287 0)
(1.00434658 0.004812762082 0)
(1.004348833 0.004530963128 0)
(1.004307171 0.004277344169 0)
(1.004308966 0.004117524175 0)
(1.004288651 0.003943144631 0)
(1.004318366 0.00383736179 0)
(1.004318671 0.003691452767 0)
(1.00436357 0.003605512606 0)
(1.004368015 0.003469754265 0)
(1.004411468 0.003393435856 0)
(1.004405275 0.003269182179 0)
(1.004434672 0.003203076569 0)
(1.004406176 0.003105066128 0)
(1.004413622 0.003056821321 0)
(1.004353093 0.003017359563 0)
(0.9976252509 0.004208643699 0)
(0.9977122492 0.004496272655 0)
(0.9978233465 0.004783363397 0)
(0.9979837601 0.005089099316 0)
(0.9981736774 0.005381440093 0)
(0.9984169427 0.005682276302 0)
(0.998689984 0.005956939087 0)
(0.9990190786 0.006230362237 0)
(0.9993774937 0.006463161635 0)
(0.9997933329 0.00668267828 0)
(1.000235737 0.006843174632 0)
(1.000733399 0.006972716916 0)
(1.00124732 0.007017127777 0)
(1.001801092 0.007006368866 0)
(1.002340362 0.006881206603 0)
(1.002877258 0.006683372117 0)
(1.00333934 0.00636398521 0)
(1.003734994 0.005998448894 0)
(1.003996917 0.005565686595 0)
(1.004168322 0.005175621447 0)
(1.004225175 0.004801773868 0)
(1.004255324 0.004530136376 0)
(1.00424134 0.004280742094 0)
(1.004255824 0.004116711948 0)
(1.004250214 0.003941787036 0)
(1.004282676 0.003830730154 0)
(1.004291849 0.003686580011 0)
(1.004335599 0.003596906391 0)
(1.004347425 0.003465685745 0)
(1.004388785 0.003386553546 0)
(1.004390219 0.003268673162 0)
(1.004417929 0.003200235418 0)
(1.004398118 0.003109001051 0)
(1.004405423 0.003059726896 0)
(1.004356443 0.003023788956 0)
(0.9979286724 0.004130024216 0)
(0.9980129996 0.004388252303 0)
(0.9981190556 0.004645793104 0)
(0.9982667382 0.004921553029 0)
(0.9984419092 0.005186311448 0)
(0.9986636007 0.005460761819 0)
(0.9989146287 0.005712343104 0)
(0.9992152543 0.005964213484 0)
(0.9995454272 0.006179383631 0)
(0.9999262317 0.006383079954 0)
(1.00033381 0.006532734302 0)
(1.000788851 0.006654858434 0)
(1.001260663 0.00670004374 0)
(1.001765244 0.006697354344 0)
(1.002259716 0.006593565431 0)
(1.002750878 0.006428257166 0)
(1.00318216 0.0061562111 0)
(1.003557385 0.005843906764 0)
(1.003823841 0.005467133228 0)
(1.004011059 0.005120503957 0)
(1.004099515 0.004777851258 0)
(1.00415489 0.004519137691 0)
(1.004167668 0.004277004426 0)
(1.004195195 0.004110891723 0)
(1.004204916 0.003937066435 0)
(1.004241012 0.003821604153 0)
(1.004259641 0.003679818996 0)
(1.004302902 0.003586776737 0)
(1.00432243 0.003460243702 0)
(1.004362165 0.00337867521 0)
(1.004371434 0.003267019254 0)
(1.004397815 0.00319684468 0)
(1.004387021 0.003111896366 0)
(1.004394331 0.003062252864 0)
(1.004357277 0.003029224981 0)
(0.9982200832 0.004044449688 0)
(0.9983016604 0.004275841241 0)
(0.9984033295 0.004506405785 0)
(0.9985396446 0.004754120305 0)
(0.9987017464 0.004992678051 0)
(0.9989035161 0.005241347364 0)
(0.9991339108 0.005470255192 0)
(0.9994072218 0.005700544294 0)
(0.9997100007 0.005898214493 0)
(1.000056492 0.006086157287 0)
(1.000429986 0.006225482912 0)
(1.000843512 0.006340612754 0)
(1.0012748 0.006387162944 0)
(1.001732449 0.006392395602 0)
(1.002184775 0.006309081406 0)
(1.002632796 0.006173656357 0)
(1.003034751 0.005945048565 0)
(1.003388992 0.005680994718 0)
(1.003656832 0.005356229322 0)
(1.003855058 0.005051147836 0)
(1.003970354 0.004740753229 0)
(1.004047895 0.004497366818 0)
(1.004086098 0.004265345553 0)
(1.004126643 0.004099363264 0)
(1.004152138 0.003928336153 0)
(1.004192605 0.003809520786 0)
(1.004221291 0.00367071732 0)
(1.004264681 0.003574793244 0)
(1.00429231 0.003453016932 0)
(1.004330844 0.00336944971 0)
(1.00434826 0.003263750042 0)
(1.0043736 0.003192426406 0)
(1.004372215 0.003113195604 0)
(1.004379634 0.003063731044 0)
(1.004355003 0.003033063928 0)
(0.9984985282 0.003951803587 0)
(0.9985771392 0.004158640293 0)
(0.9986748189 0.00436459203 0)
(0.9988007286 0.004586211832 0)
(0.9989511239 0.004800189211 0)
(0.9991344505 0.005024070557 0)
(0.999345649 0.005231087065 0)
(0.9995929587 0.005440161008 0)
(0.99986954 0.005620737296 0)
(1.000182834 0.005793170196 0)
(1.000523461 0.005922660835 0)
(1.000896956 0.006031103674 0)
(1.00128965 0.006079317893 0)
(1.001702754 0.006092035222 0)
(1.002115622 0.006027983372 0)
(1.002522957 0.005919701902 0)
(1.002897013 0.00573064793 0)
(1.00322979 0.005510059667 0)
(1.003496238 0.00523327858 0)
(1.003700979 0.004967570068 0)
(1.00383846 0.00468991931 0)
(1.003934769 0.004463935032 0)
(1.003996691 0.004244681489 0)
(1.004049783 0.004081197464 0)
(1.004091289 0.003914788515 0)
(1.004136643 0.003794006001 0)
(1.004175987 0.003658950243 0)
(1.004220018 0.00356094103 0)
(1.004256247 0.003444078621 0)
(1.004293909 0.003359195898 0)
(1.004319917 0.003259239526 0)
(1.004344391 0.003187510007 0)
(1.004352957 0.00311351317 0)
(1.004360455 0.003064807616 0)
(1.004348736 0.003036125602 0)
(0.9987627877 0.003852573793 0)
(0.998838143 0.004036998014 0)
(0.9989320401 0.00422060529 0)
(0.999048232 0.004418144552 0)
(0.9991880192 0.004609373466 0)
(0.9993542267 0.004809823008 0)
(0.9995476654 0.004996100612 0)
(0.9997704209 0.005184722551 0)
(1.000022268 0.005348906263 0)
(1.000303842 0.005506287652 0)
(1.000613217 0.00562645663 0)
(1.000948533 0.005728442549 0)
(1.001304847 0.005778364796 0)
(1.001675945 0.005797869642 0)
(1.002052051 0.005751568351 0)
(1.002421074 0.005667579124 0)
(1.002768627 0.005514158504 0)
(1.003079589 0.005332363424 0)
(1.003342235 0.005099415134 0)
(1.003549408 0.0048705281 0)
(1.003704613 0.004625365036 0)
(1.003816122 0.004418259179 0)
(1.003899694 0.00421391902 0)
(1.003964481 0.004055115681 0)
(1.004021959 0.003894955469 0)
(1.004072512 0.003773603502 0)
(1.004123033 0.003642940646 0)
(1.004168153 0.003543654089 0)
(1.004213487 0.003431723175 0)
(1.004250588 0.003346175784 0)
(1.004285654 0.003251635404 0)
(1.004309425 0.003180156048 0)
(1.004328456 0.003110890631 0)
(1.004336022 0.003063386166 0)
(1.004337693 0.00303641485 0)
(0.9990119241 0.003746295959 0)
(0.9990836696 0.003910239965 0)
(0.9991738789 0.004073559051 0)
(0.9992808253 0.004248975643 0)
(0.9994109095 0.004419306485 0)
(0.9995611471 0.004597883409 0)
(0.9997382329 0.004764782466 0)
(0.9999379217 0.004934019195 0)
(1.00016669 0.005082724352 0)
(1.00041825 0.005225736484 0)
(1.000698305 0.005337144887 0)
(1.000997538 0.005432943474 0)
(1.001319911 0.005484496628 0)
(1.00165159 0.005510052934 0)
(1.001993634 0.005479916018 0)
(1.002326584 0.005417545746 0)
(1.00264901 0.005296076863 0)
(1.002937886 0.005148854055 0)
(1.003194694 0.004955822876 0)
(1.003400595 0.004761289336 0)
(1.003569358 0.004548044215 0)
(1.003692367 0.004361107014 0)
(1.003795263 0.004173664167 0)
(1.003870458 0.004021923527 0)
(1.003943617 0.003869815838 0)
(1.003999389 0.00374970273 0)
(1.004061548 0.003624319872 0)
(1.004108058 0.003524929082 0)
(1.004163076 0.003418103289 0)
(1.004199826 0.003332757151 0)
(1.00424454 0.003243375455 0)
(1.004267675 0.003172845098 0)
(1.00429781 0.003107848853 0)
(1.004305342 0.003061898983 0)
(1.004320924 0.003036380647 0)
(0.9992444103 0.003634924047 0)
(0.9993122389 0.003780264115 0)
(0.9993988255 0.003925278205 0)
(0.9994969168 0.004080518097 0)
(0.9996181052 0.00423182179 0)
(0.9997534516 0.004390194009 0)
(0.9999155908 0.004539180025 0)
(1.000093783 0.004690230538 0)
(1.000301299 0.004824415122 0)
(1.00052479 0.004953738876 0)
(1.000777735 0.0050567786 0)
(1.00104324 0.005146418142 0)
(1.001334315 0.005199120602 0)
(1.001629278 0.005229591441 0)
(1.001939978 0.00521357234 0)
(1.00223907 0.005169835525 0)
(1.002537772 0.005076342117 0)
(1.002804468 0.004959297075 0)
(1.003053783 0.004801883544 0)
(1.003255179 0.004638673468 0)
(1.003433685 0.004455825851 0)
(1.003564536 0.004289430711 0)
(1.003684209 0.004119986207 0)
(1.003768175 0.003977153515 0)
(1.003856396 0.003834472963 0)
(1.003917114 0.003717262849 0)
(1.00399118 0.003597935249 0)
(1.004039229 0.003499669705 0)
(1.004104424 0.003398188306 0)
(1.004140962 0.003314035718 0)
(1.004195863 0.003229748236 0)
(1.004218397 0.003160987589 0)
(1.004260197 0.00310009371 0)
(1.004267608 0.003056164462 0)
(1.004297553 0.003032160208 0)
(0.9994597004 0.003516355454 0)
(0.9995232318 0.003644928427 0)
(0.999606145 0.003773535573 0)
(0.9996956231 0.003910638617 0)
(0.9998085356 0.004044874843 0)
(0.9999299012 0.004185017923 0)
(1.000078354 0.004317849578 0)
(1.000236546 0.004452403097 0)
(1.000424605 0.004573444768 0)
(1.000622012 0.004690332673 0)
(1.000850113 0.004785837832 0)
(1.001084313 0.004869919933 0)
(1.00134675 0.004923732955 0)
(1.00160767 0.00495860879 0)
(1.001889649 0.004955229442 0)
(1.002157005 0.004927982636 0)
(1.002433353 0.004859303775 0)
(1.002677919 0.004769053577 0)
(1.002918415 0.00464371061 0)
(1.003112549 0.004509412484 0)
(1.003297387 0.004355561396 0)
(1.003432613 0.004210105773 0)
(1.003566437 0.004059577637 0)
(1.003657346 0.003927465189 0)