/*--------------------------------*- C++ -*----------------------------------*\
| =========                 |                                                 |
| \\      /  F ield         | OpenFOAM: The Open Source CFD Toolbox           |
|  \\    /   O peration     | Version:  v1806                                 |
|   \\  /    A nd           | Web:      www.OpenFOAM.com                      |
|    \\/     M anipulation  |                                                 |
\*---------------------------------------------------------------------------*/
FoamFile
{
    version     2.0;
    format      ascii;
    class       volScalarField;
    location    "1000";
    object      p;
}
// * * * * * * * * * * * * * * * * * * * * * * * * * * * * * * * * * * * * * //

dimensions      [0 2 -2 0 0 0 0];


internalField   nonuniform List<scalar> 
2475
(
0.001009845542
0.0005110978437
0.0001519515739
-6.339427107e-06
-2.956013503e-05
-9.504082697e-06
4.32874773e-06
8.450738313e-06
9.756377107e-06
1.08935062e-05
1.169149994e-05
1.204156314e-05
1.194269939e-05
1.158958002e-05
1.101112157e-05
1.031593077e-05
9.497685443e-06
8.617411308e-06
7.675958148e-06
6.702173744e-06
5.712823518e-06
4.708343833e-06
3.721464696e-06
2.736779933e-06
1.789732238e-06
8.809903214e-07
4.242389409e-09
-7.442870639e-07
-1.528320415e-06
-1.961900562e-06
-2.653335202e-06
-2.449539044e-06
-3.120421222e-06
-1.539210462e-06
-2.42607183e-06
0.0009189783229
0.0004796764505
0.0001505238827
5.089662606e-06
-1.893489654e-05
-3.198533383e-06
7.812010865e-06
1.060894623e-05
1.128547377e-05
1.206762336e-05
1.262769222e-05
1.280745123e-05
1.258062119e-05
1.212909414e-05
1.147174134e-05
1.071322955e-05
9.842188169e-06
8.918748456e-06
7.940056933e-06
6.935715781e-06
5.918994397e-06
4.892368492e-06
3.884662087e-06
2.883748107e-06
1.92032917e-06
9.997303054e-07
1.096730945e-07
-6.473047458e-07
-1.442570246e-06
-1.881770084e-06
-2.583069481e-06
-2.382408379e-06
-3.062138943e-06
-1.482082743e-06
-2.375839887e-06
0.0008006811597
0.0004586566648
0.0001739361702
3.540200198e-05
4.237888511e-07
6.311819785e-06
1.293761137e-05
1.407821116e-05
1.387523606e-05
1.403135888e-05
1.412758192e-05
1.397990697e-05
1.352023922e-05
1.290121655e-05
1.211630773e-05
1.125979137e-05
1.03094486e-05
9.322782293e-06
8.29075125e-06
7.243186736e-06
6.188593346e-06
5.131350485e-06
4.095588132e-06
3.072573841e-06
2.087555219e-06
1.150974671e-06
2.436046407e-07
-5.246586389e-07
-1.334472036e-06
-1.781056351e-06
-2.495290191e-06
-2.298505138e-06
-2.990352932e-06
-1.41118269e-06
-2.316722523e-06
0.0007101208671
0.0004488259004
0.0002008110262
6.758990087e-05
2.318810568e-05
1.911934213e-05
2.035615044e-05
1.901188004e-05
1.74188102e-05
1.666360177e-05
1.612939071e-05
1.554381438e-05
1.476527275e-05
1.390993723e-05
1.294172302e-05
1.194452336e-05
1.088256059e-05
9.80881433e-06
8.705822729e-06
7.601646111e-06
6.499318037e-06
5.403452766e-06
4.33386952e-06
3.283637707e-06
2.273536136e-06
1.317494346e-06
3.906523863e-07
-3.914191602e-07
-1.217147041e-06
-1.673117305e-06
-2.401136455e-06
-2.210152735e-06
-2.914497908e-06
-1.33897283e-06
-2.256484435e-06
0.0006327305826
0.0004331444279
0.0002197690247
9.513883988e-05
4.564009066e-05
3.354474945e-05
2.962669689e-05
2.558139174e-05
2.229869885e-05
2.033625028e-05
1.89194187e-05
1.770438376e-05
1.646897015e-05
1.528085836e-05
1.405839652e-05
1.286628239e-05
1.164888611e-05
1.045207489e-05
9.248781372e-06
8.06362567e-06
6.894459457e-06
5.743868909e-06
4.628430308e-06
3.540316129e-06
2.497617653e-06
1.514823936e-06
5.638104317e-07
-2.37326681e-07
-1.081880619e-06
-1.551404021e-06
-2.29484197e-06
-2.113748821e-06
-2.830838175e-06
-1.26491144e-06
-2.191387703e-06
0.0005643175894
0.0004131382124
0.0002336760925
0.0001194273609
6.709094221e-05
4.835446116e-05
3.969045917e-05
3.299903822e-05
2.799034158e-05
2.475393477e-05
2.237534317e-05
2.044777716e-05
1.867118962e-05
1.707286617e-05
1.552691515e-05
1.408228686e-05
1.266147068e-05
1.130271135e-05
9.966978378e-06
8.673724639e-06
7.415161499e-06
6.189850237e-06
5.012385871e-06
3.871475078e-06
2.784813461e-06
1.764203633e-06
7.812414481e-07
-4.728306705e-08
-9.158558963e-07
-1.405614423e-06
-2.16766684e-06
-2.003009338e-06
-2.733678557e-06
-1.186918468e-06
-2.114781131e-06
0.0005059568511
0.0003920387128
0.0002436754811
0.0001401180386
8.651562214e-05
6.261743259e-05
4.98649023e-05
4.07299077e-05
3.405334192e-05
2.955543716e-05
2.621014975e-05
2.355696683e-05
2.121824517e-05
1.918636039e-05
1.728952386e-05
1.556533238e-05
1.391215491e-05
1.236495172e-05
1.087075687e-05
9.446816924e-06
8.077936263e-06
6.759857606e-06
5.504215184e-06
4.296102457e-06
3.153016383e-06
2.082915845e-06
1.058422315e-06
1.929367575e-07
-7.06866933e-07
-1.225089258e-06
-2.010763132e-06
-1.871109138e-06
-2.617101872e-06
-1.103053049e-06
-2.018297078e-06
0.0004571078362
0.0003706079238
0.0002495123091
0.0001568577277
0.0001035785292
7.605295333e-05
5.993989897e-05
4.859369767e-05
4.032172731e-05
3.458208467e-05
3.02714506e-05
2.688697323e-05
2.397709345e-05
2.150306514e-05
1.924577686e-05
1.723409558e-05
1.533813971e-05
1.359366072e-05
1.192888564e-05
1.036419893e-05
8.871858061e-06
7.450576111e-06
6.103911207e-06
4.818797988e-06
3.607667196e-06
2.479374456e-06
1.403205194e-06
4.930657778e-07
-4.466716951e-07
-1.000620544e-06
-1.816901442e-06
-1.710960201e-06
-2.475474979e-06
-1.010804502e-06
-1.893417183e-06
0.0004162414762
0.0003493978382
0.0002516262842
0.0001699818809
0.0001183619502
8.854058202e-05
6.976768655e-05
5.646730385e-05
4.670031326e-05
3.97557739e-05
3.449053763e-05
3.037159098e-05
2.688366998e-05
2.395858066e-05
2.133313913e-05
1.902757515e-05
1.688271483e-05
1.493694312e-05
1.309590167e-05
1.138758566e-05
9.765399716e-06
8.238161477e-06
6.792851146e-06
5.42771297e-06
4.139791209e-06
2.950101237e-06
1.812846299e-06
8.548206958e-07
-1.344003348e-07
-7.277115153e-07
-1.583455546e-06
-1.517418611e-06
-2.305481194e-06
-9.076108566e-07
-1.735796841e-06
0.0003818671651
0.0003290612849
0.0002507125112
0.0001798224135
0.0001308705753
9.989732478e-05
7.917206714e-05
6.423108895e-05
5.31154732e-05
4.503048859e-05
3.883687404e-05
3.398575646e-05
2.991589146e-05
2.652942918e-05
2.352777711e-05
2.091908186e-05
1.851878671e-05
1.636552696e-05
1.434316601e-05
1.248779039e-05
1.073127361e-05
9.096718288e-06
7.547889885e-06
6.102726456e-06
4.7320228e-06
3.481713581e-06
2.27588027e-06
1.271045842e-06
2.234162904e-07
-4.086617941e-07
-1.313351676e-06
-1.289668147e-06
-2.107528784e-06
-7.91996391e-07
-1.549333474e-06
0.0003526706146
0.000310014404
0.0002473975439
0.0001866569365
0.0001411287468
0.0001099960034
8.801634801e-05
7.178821433e-05
5.950635035e-05
5.037041154e-05
4.329086942e-05
3.771810031e-05
3.306742509e-05
2.921037041e-05
2.582516403e-05
2.290232503e-05
2.023951449e-05
1.786990934e-05
1.566066577e-05
1.365210857e-05
1.175683809e-05
1.001139733e-05
8.355000232e-06
6.828467551e-06
5.370529686e-06
4.060106079e-06
2.780188265e-06
1.730376776e-06
6.174196354e-07
-5.129966206e-08
-1.012818304e-06
-1.031919622e-06
-1.885105043e-06
-6.646197507e-07
-1.345535982e-06
0.0003275281982
0.0002924217908
0.0002422748824
0.000190817223
0.0001492304043
0.000118764357
9.618021376e-05
7.903772446e-05
6.580180206e-05
5.573103477e-05
4.782743135e-05
4.155618958e-05
3.633357274e-05
3.200108404e-05
2.822708429e-05
2.497962466e-05
2.204710417e-05
1.945122198e-05
1.704881145e-05
1.487914128e-05
1.284012544e-05
1.097804171e-05
9.210000223e-06
7.598371481e-06
6.049474243e-06
4.677024524e-06
3.319095293e-06
2.223852105e-06
1.041070604e-06
3.358327791e-07
-6.873371038e-07
-7.51051769e-07
-1.64243588e-06
-5.285139024e-07
-1.137947634e-06
0.0003055548634
0.0002762851027
0.0002358912218
0.000192670682
0.0001553007919
0.0001261559775
0.000103550232
8.587396437e-05
7.19219523e-05
6.105966163e-05
5.241447409e-05
4.548337028e-05
3.970683256e-05
3.490076667e-05
3.073569654e-05
2.715554058e-05
2.394636888e-05
2.111481938e-05
1.851219304e-05
1.617311954e-05
1.398437574e-05
1.19989585e-05
1.011444047e-05
8.412547722e-06
6.768783693e-06
5.330408917e-06
3.89121467e-06
2.747491593e-06
1.492144782e-06
7.473272104e-07
-3.39414729e-07
-4.529099184e-07
-1.382288905e-06
-3.874806697e-07
-9.365722886e-07
0.0002860962334
0.0002615029127
0.0002286997369
0.0001925903262
0.0001594893331
0.0001321556791
0.0001100325654
9.219569173e-05
7.778207544e-05
6.629523134e-05
5.701074964e-05
4.947550206e-05
4.317360004e-05
3.79045853e-05
3.33502943e-05
2.94333039e-05
2.594147328e-05
2.286652599e-05
2.005621888e-05
1.754003379e-05
1.519467569e-05
1.30792155e-05
1.107243604e-05
9.274618054e-06
7.531380143e-06
6.022166583e-06
4.498296475e-06
3.30137049e-06
1.971401734e-06
1.181474889e-06
3.095719655e-08
-1.40507557e-07
-1.105709333e-06
-2.4407955e-07
-7.465442334e-07
0.0002686773133
0.0002479221746
0.0002210456074
0.0001909409835
0.0001619729278
0.0001367827038
0.0001155572433
9.790850821e-05
8.32932035e-05
7.136723131e-05
6.156440309e-05
5.349880528e-05
4.67123787e-05
4.100155666e-05
3.606566721e-05
3.181285046e-05
2.80344012e-05
2.471065643e-05
2.168554608e-05
1.898548605e-05
1.647628444e-05
1.422429868e-05
1.208892864e-05
1.018929679e-05
8.341483947e-06
6.755891688e-06
5.143675512e-06
3.887739085e-06
2.481250446e-06
1.639056055e-06
4.252310997e-07
1.85633619e-07
-8.128052992e-07
-9.89701762e-08
-5.698932787e-07
0.000252947504
0.00023538108
0.0002131743907
0.0001880622751
0.0001629496292
0.0001400875552
0.0001200797994
0.0001029291892
8.836638504e-05
7.619815286e-05
6.601415199e-05
5.750944796e-05
5.029299345e-05
4.417308484e-05
3.887085763e-05
3.428932636e-05
3.022381278e-05
2.6648721e-05
2.340307628e-05
2.051351458e-05
1.783366923e-05
1.543891703e-05
1.316868331e-05
1.1161082e-05
9.20356215e-06
7.535434651e-06
5.831227411e-06
4.509550879e-06
3.024793066e-06
2.121974744e-06
8.454936024e-07
5.264174757e-07
-5.033592626e-07
4.862588806e-08
-4.072526274e-07
0.0002386386641
0.0002237335874
0.0002052501304
0.0001842526331
0.0001626290165
0.0001421496727
0.0001235842399
0.0001071918393
9.291862033e-05
8.070755786e-05
7.02914798e-05
6.145412974e-05
5.38762883e-05
4.739210161e-05
4.1748143e-05
3.685202825e-05
3.25040503e-05
2.867854355e-05
2.520912576e-05
2.212590438e-05
1.926979241e-05
1.672642097e-05
1.431561427e-05
1.219368333e-05
1.0121638e-05
8.364256434e-06
6.564649885e-06
5.169697973e-06
3.60511677e-06
2.632391975e-06
1.293848284e-06
8.833132231e-07
-1.772062106e-07
2.002560311e-07
-2.58536493e-07
0.000225537589
0.000212857354
0.0001973768842
0.0001797605736
0.0001612210136
0.0001430731223
0.0001260838291
0.0001106524388
9.687826326e-05
8.481680558e-05
7.43237914e-05
6.527197913e-05
5.741477707e-05
5.062316133e-05
4.467254764e-05
3.94838887e-05
3.486440105e-05
3.079370793e-05
2.710076221e-05
2.382174551e-05
2.078557453e-05
1.80884646e-05
1.553234073e-05
1.328973713e-05
1.109888951e-05
9.245139685e-06
7.347063023e-06
5.870668984e-06
4.224878193e-06
3.172303282e-06
1.772010467e-06
1.257875883e-06
1.654974544e-07
3.577669945e-07
-1.231262947e-07
0.0002134710283
0.0002026534138
0.0001896190481
0.000174784566
0.0001589251402
0.0001429796677
0.0001276188948
0.000113291262
0.0001001900129
8.845445851e-05
7.803860171e-05
6.889755091e-05
6.085420412e-05
5.382324426e-05
4.761183675e-05
4.216126811e-05
3.728855731e-05
3.298310315e-05
2.90712347e-05
2.559702625e-05
2.23794468e-05
1.952470863e-05
1.681987133e-05
1.445060449e-05
1.213743396e-05
1.018005108e-05
8.180852903e-06
6.614444768e-06
4.88616873e-06
3.743438019e-06
2.281184152e-06
1.651622045e-06
5.242381933e-07
5.231324095e-07
8.875744441e-11
0.0002022967096
0.000193041895
0.0001820160497
0.0001694781725
0.0001559218027
0.0001420005718
0.0001282528453
0.0001151131585
0.0001028181485
9.156112653e-05
8.136818041e-05
7.226451414e-05
6.413594101e-05
5.694324265e-05
5.052718535e-05
4.485420337e-05
3.975450915e-05
3.52307044e-05
3.110964284e-05
2.744431169e-05
2.40470129e-05
2.103251497e-05
1.817730511e-05
1.567609684e-05
1.323805723e-05
1.116988867e-05
9.067411669e-06
7.402260888e-06
5.590258499e-06
4.347030761e-06
2.821832316e-06
2.065784825e-06
8.980342188e-07
6.981299273e-07
1.125776497e-07
0.000191897449
0.000183957513
0.0001745917225
0.0001639578355
0.0001523671824
0.0001402678721
0.0001280658993
0.0001161453591
0.0001047475903
9.4092441e-05
8.425314141e-05
7.530910637e-05
6.719955104e-05
5.992954957e-05
5.337393436e-05
4.752663391e-05
4.22344249e-05
3.751531288e-05
3.320061669e-05
2.935247117e-05
2.578083367e-05
2.26068484e-05
1.960181131e-05
1.696458519e-05
1.44003734e-05
1.221476326e-05
1.000742202e-05
8.235001527e-06
6.337950359e-06
4.984258113e-06
3.394080387e-06
2.501712321e-06
1.285922309e-06
8.845941781e-07
2.162692245e-07
0.0001821770412
0.0001753467369
0.0001673607588
0.0001583120166
0.0001483931913
0.0001379084946
0.0001271495984
0.0001164348255
0.000105984549
9.602231044e-05
8.664672225e-05
7.797431266e-05
6.998648077e-05
6.272699712e-05
5.610352658e-05
5.013738772e-05
4.469493066e-05
3.981031689e-05
3.53237263e-05
3.130583488e-05
2.756941073e-05
2.423913797e-05
2.108740336e-05
1.831172814e-05
1.562151483e-05
1.33126972e-05
1.09995565e-05
9.111944127e-06
7.128374328e-06
5.655075319e-06
3.996702033e-06
2.959806888e-06
1.686214633e-06
1.08343092e-06
3.130609372e-07
0.0001730537001
0.000167162706
0.0001603293902
0.0001526055448
0.0001441064605
0.000135036967
0.0001255981084
0.0001160414129
0.0001065525662
9.734191829e-05
8.851616678e-05
8.021248194e-05
7.244278005e-05
6.528131895e-05
5.866579577e-05
5.264231657e-05
4.709897851e-05
4.208542655e-05
3.745517815e-05
3.328601806e-05
2.939912128e-05
2.591942101e-05
2.26271781e-05
1.971288474e-05
1.689855144e-05
1.446214123e-05
1.20429027e-05
1.003319435e-05
7.961267711e-06
6.360404601e-06
4.629170296e-06
3.441352924e-06
2.098255004e-06
1.296044927e-06
4.053469369e-07
0.0001644627579
0.0001593689348
0.0001535027321
0.0001468899935
0.000139595882
0.0001317568932
0.0001235062292
0.0001150354018
0.0001064911595
9.805989745e-05
8.984410458e-05
8.198721152e-05
7.452085365e-05
6.753997609e-05
6.100835135e-05
5.499223232e-05
4.940266382e-05
4.43025373e-05
3.95628241e-05
3.52662609e-05
3.12480975e-05
2.762997941e-05
2.420686864e-05
2.115673424e-05
1.822229143e-05
1.565603637e-05
1.313139863e-05
1.099447641e-05
8.832294431e-06
7.097790642e-06
5.287986759e-06
3.945053852e-06
2.51968472e-06
1.521734541e-06
4.947696888e-07
0.0001563425696
0.0001519279295
0.0001468771784
0.0001412000254
0.0001349297113
0.0001281557274
0.0001209625479
0.0001134915357
0.0001058525023
9.82025915e-05
9.063252078e-05
8.328064538e-05
7.61891573e-05
6.946364754e-05
6.308925761e-05
5.714628578e-05
5.156874096e-05
4.642932734e-05
4.161979176e-05
3.722503904e-05
3.309956806e-05
2.935829511e-05
2.581721089e-05
2.263700678e-05
1.958821895e-05
1.68919211e-05
1.42630203e-05
1.1995367e-05
9.740363276e-06
7.86772728e-06
5.972223533e-06
4.471638871e-06
2.950359111e-06
1.760933077e-06
5.834248813e-07
0.0001486499369
0.0001448135531
0.0001404512955
0.0001355626061
0.0001301611929
0.0001243040004
0.0001180419546
0.0001114761832
0.0001046851881
9.779556211e-05
9.088300112e-05
8.407257874e-05
7.741029972e-05
7.100299919e-05
6.485249518e-05
5.904614403e-05
5.35399989e-05
4.841208596e-05
4.357719537e-05
3.911915108e-05
3.491595359e-05
3.10725765e-05
2.743125558e-05
2.413176363e-05
2.097788815e-05
1.815548349e-05
1.542555206e-05
1.302709707e-05
1.067751054e-05
8.665200184e-06
6.676853809e-06
5.018419095e-06
3.388200267e-06
2.012105583e-06
6.725242468e-07
0.0001413450732
0.0001380053303
0.000134229377
0.0001300099971
0.0001253494543
0.0001202821158
0.0001148365933
0.0001090827498
0.0001030743645
9.690919366e-05
9.064740549e-05
8.439604149e-05
7.82000917e-05
7.216019933e-05
6.629008042e-05
6.067766783e-05
5.529881376e-05
5.023244315e-05
4.541696171e-05
4.093227256e-05
3.668241448e-05
3.276025353e-05
2.903774026e-05
2.563178829e-05
2.238273317e-05
1.943990052e-05
1.661212059e-05
1.408439801e-05
1.163797363e-05
9.486002987e-06
7.397260116e-06
5.581947708e-06
3.830695742e-06
2.272285052e-06
7.622931533e-07
0.0001343631597
0.0001314465671
0.0001281664783
0.0001245120244
0.0001204800498
0.0001160887437
0.0001113530794
0.0001063186064
0.0001010214496
9.553324015e-05
8.990077795e-05
8.421033768e-05
7.85038067e-05
7.286939891e-05
6.732927448e-05
6.196524745e-05
5.677068254e-05
5.182004089e-05
4.707512895e-05
4.260829606e-05
3.835106192e-05
3.438199539e-05
3.060482899e-05
2.711269792e-05
2.378389196e-05
2.073205979e-05
1.781294003e-05
1.516161483e-05
1.261763098e-05
1.032875383e-05
8.132828356e-06
6.162958963e-06
4.280105987e-06
2.543078785e-06
8.547891162e-07
0.0001277746927
0.0001252221128
0.0001223674909
0.0001191951943
0.0001156994612
0.0001118873995
0.0001077658621
0.0001033622508
9.870022604e-05
9.382967156e-05
8.878609135e-05
8.363577119e-05
7.841584438e-05
7.319985927e-05
6.801451267e-05
6.293232995e-05
5.796003363e-05
5.316530627e-05
4.853006746e-05
4.411844584e-05
3.988702378e-05
3.590110568e-05
3.20939439e-05
2.85375775e-05
2.514512584e-05
2.19992143e-05
1.899724497e-05
1.623198364e-05
1.35923306e-05
1.117285419e-05
8.866110626e-06
6.746408954e-06
4.725390466e-06
2.814182614e-06
9.465527265e-07
0.0001213000194
0.0001190643354
0.0001165732351
0.000113813254
0.0001107797666
0.0001074708849
0.0001038901215
0.0001000505447
9.596866949e-05
9.167514567e-05
8.719758979e-05
8.258174444e-05
7.786051458e-05
7.308903353e-05
6.829696721e-05
6.354210777e-05
5.884266262e-05
5.425425699e-05
4.977811951e-05
4.546622864e-05
4.130077274e-05
3.733157655e-05
3.352257595e-05
2.992429626e-05
2.648513072e-05
2.32584843e-05
2.018146679e-05
1.730965506e-05
1.45750913e-05
1.202918311e-05
9.60732684e-06
7.340839803e-06
5.175666443e-06
3.093037667e-06
1.041520151e-06
0.000107544455
0.0001059121127
0.0001041136221
0.0001021295619
9.995848481e-05
9.758686717e-05
9.5016639e-05
9.223986697e-05
8.926504553e-05
8.609297676e-05
8.273991458e-05
7.921642751e-05
7.554617591e-05
7.174884042e-05
6.785312025e-05
6.388525353e-05
5.987507804e-05
5.585177389e-05
5.184200066e-05
4.787431206e-05
4.396866509e-05
4.01503266e-05
3.643065682e-05
3.283010296e-05
2.935144187e-05
2.600942514e-05
2.279993751e-05
1.973077028e-05
1.679355919e-05
1.398596202e-05
1.129729247e-05
8.707989675e-06
6.20225821e-06
3.730359584e-06
1.257732621e-06
9.210569824e-05
9.093561859e-05
8.966235446e-05
8.826529531e-05
8.674893241e-05
8.509505118e-05
8.330962568e-05
8.137540245e-05
7.930144461e-05
7.707347054e-05
7.470474515e-05
7.218507194e-05
6.953268204e-05
6.674219964e-05
6.38368857e-05
6.081604821e-05
5.770714445e-05
5.451311947e-05
5.126401797e-05
4.796465687e-05
4.464563666e-05
4.131153226e-05
3.799150118e-05
3.468776483e-05
3.142644368e-05
2.820543772e-05
2.504675721e-05
2.194195039e-05
1.890803844e-05
1.592750724e-05
1.301068131e-05
1.012653734e-05
7.274168622e-06
4.401729755e-06
1.487285393e-06
7.933667834e-05
7.847416982e-05
7.754472992e-05
7.652885285e-05
7.543480116e-05
7.42430353e-05
7.296263917e-05
7.157339511e-05
7.008590707e-05
6.848024138e-05
6.676913757e-05
6.49336847e-05
6.298942876e-05
6.091926927e-05
5.874213849e-05
5.644332571e-05
5.40454435e-05
5.15363751e-05
4.894226623e-05
4.62532774e-05
4.349841947e-05
4.066924363e-05
3.779647148e-05
3.487164577e-05
3.192566598e-05
2.894825786e-05
2.596866538e-05
2.297259816e-05
1.998541408e-05
1.698599064e-05
1.399268566e-05
1.097343158e-05
7.934440489e-06
4.826031745e-06
1.633971807e-06
6.893128814e-05
6.8259588e-05
6.75415149e-05
6.67584654e-05
6.592055059e-05
6.500873605e-05
6.403383095e-05
6.297556577e-05
6.184567131e-05
6.06232058e-05
5.932113324e-05
5.79182418e-05
5.642910253e-05
5.483276216e-05
5.314583509e-05
5.134816229e-05
4.945879725e-05
4.74588216e-05
4.536996602e-05
4.317476663e-05
4.089758426e-05
3.852225495e-05
3.607533601e-05
3.354135384e-05
3.094816997e-05
2.827988353e-05
2.556424807e-05
2.278324089e-05
1.996248345e-05
1.707942269e-05
1.415470856e-05
1.115789729e-05
8.100726098e-06
4.940338964e-06
1.674145622e-06
5.982592885e-05
5.928942361e-05
5.871958242e-05
5.809922577e-05
5.743927319e-05
5.672172176e-05
5.595815355e-05
5.512923575e-05
5.424722389e-05
5.32917362e-05
5.22758221e-05
5.117825128e-05
5.001302772e-05
4.875837585e-05
4.742948863e-05
4.600440899e-05
4.449978732e-05
4.289386799e-05
4.12050088e-05
3.941197294e-05
3.753497814e-05
3.555345842e-05
3.348944472e-05
3.132292614e-05
2.907737773e-05
2.673284031e-05
2.431340487e-05
2.179812324e-05
1.921027367e-05
1.652617009e-05
1.376607647e-05
1.090094045e-05
7.944835789e-06
4.859599383e-06
1.648707481e-06
5.187285037e-05
5.143586394e-05
5.09738766e-05
5.047116967e-05
4.993855402e-05
4.93594897e-05
4.874543514e-05
4.80785547e-05
4.737086107e-05
4.6603388e-05
4.578873797e-05
4.490690259e-05
4.397111693e-05
4.296049888e-05
4.188901358e-05
4.073512921e-05
3.951367037e-05
3.8202709e-05
3.68180817e-05
3.533770812e-05
3.377858381e-05
3.21186721e-05
3.037620498e-05
2.852927824e-05
2.659726276e-05
2.45582517e-05
2.243235578e-05
2.019714824e-05
1.787265371e-05
1.54348869e-05
1.290241721e-05
1.024810471e-05
7.487156058e-06
4.587124131e-06
1.557115222e-06
4.472703997e-05
4.436729341e-05
4.398823171e-05
4.357578011e-05
4.314014352e-05
4.26664258e-05
4.216544392e-05
4.162111941e-05
4.104475211e-05
4.041916775e-05
3.975614252e-05
3.903743623e-05
3.827528704e-05
3.745048343e-05
3.657573797e-05
3.563100353e-05
3.46294948e-05
3.355046875e-05
3.240770013e-05
3.11798888e-05
2.988146131e-05
2.849071886e-05
2.702283086e-05
2.545585434e-05
2.380571492e-05
2.205027569e-05
2.020606402e-05
1.82505562e-05
1.620047601e-05
1.403239877e-05
1.176252703e-05
9.365730808e-06
6.856663076e-06
4.207295809e-06
1.429014435e-06
3.834470561e-05
3.804728534e-05
3.773458825e-05
3.739419137e-05
3.703536428e-05
3.664494882e-05
3.623277424e-05
3.578462908e-05
3.531076453e-05
3.479596076e-05
3.42508703e-05
3.365926607e-05
3.303216095e-05
3.235238376e-05
3.163127735e-05
3.085081241e-05
3.002263176e-05
2.912790762e-05
2.817857699e-05
2.715506524e-05
2.606965179e-05
2.490212853e-05
2.366519409e-05
2.233817827e-05
2.093423637e-05
1.943235446e-05
1.784610141e-05
1.615408343e-05
1.43701373e-05
1.247231832e-05
1.047448327e-05
8.353932019e-06
6.124210676e-06
3.761462995e-06
1.278015878e-06
3.263552459e-05
3.238922955e-05
3.213064182e-05
3.184898325e-05
3.15524473e-05
3.122960207e-05
3.088913593e-05
3.051869854e-05
3.012734438e-05
2.970182054e-05
2.925152464e-05
2.876229485e-05
2.824382285e-05
2.76810925e-05
2.708403552e-05
2.643683546e-05
2.574960295e-05
2.500572145e-05
2.421544549e-05
2.336135544e-05
2.245387572e-05
2.147487346e-05
2.043499892e-05
1.931557496e-05
1.812750284e-05
1.685168242e-05
1.549926187e-05
1.405073643e-05
1.251749702e-05
1.087966638e-05
9.148926921e-06
7.305198232e-06
5.360536297e-06
3.294705248e-06
1.119708445e-06
2.761917839e-05
2.741513508e-05
2.720109123e-05
2.696779735e-05
2.672235836e-05
2.645497015e-05
2.617316557e-05
2.586634266e-05
2.554234743e-05
2.518978189e-05
2.481678406e-05
2.441116234e-05
2.398130091e-05
2.351426857e-05
2.301863041e-05
2.248074173e-05
2.190926932e-05
2.128981204e-05
2.063110164e-05
1.991795545e-05
1.915919454e-05
1.83389478e-05
1.746615533e-05
1.652441004e-05
1.552277206e-05
1.444438467e-05
1.329843845e-05
1.206765904e-05
1.076143719e-05
9.362229062e-06
7.879833585e-06
6.29679588e-06
4.623602645e-06
2.843137746e-06
9.664076039e-07
2.329217403e-05
2.312279416e-05
2.294519725e-05
2.275152316e-05
2.254785128e-05
2.232584037e-05
2.20919349e-05
2.183710416e-05
2.1568062e-05
2.127509186e-05
2.096516103e-05
2.062787964e-05
2.027041654e-05
1.98817541e-05
1.94691905e-05
1.902107707e-05
1.854477319e-05
1.802793834e-05
1.747796704e-05
1.688181143e-05
1.624691589e-05
1.555962009e-05
1.482742701e-05
1.403618418e-05
1.319343486e-05
1.228458269e-05
1.1317228e-05
1.027636896e-05
9.169779666e-06
7.982271012e-06
6.722070835e-06
5.37422099e-06
3.947739367e-06
2.428222169e-06
8.254523445e-07
1.96954904e-05
1.95539261e-05
1.940553753e-05
1.924364185e-05
1.907342622e-05
1.888779534e-05
1.869224906e-05
1.847909571e-05
1.825406877e-05
1.80088929e-05
1.774951548e-05
1.746709969e-05
1.716775369e-05
1.684210508e-05
1.649635878e-05
1.612057847e-05
1.572101099e-05
1.528710144e-05
1.482512304e-05
1.432390995e-05
1.378976946e-05
1.32110147e-05
1.259396849e-05
1.192650101e-05
1.121492401e-05
1.044667605e-05
9.628093625e-06
8.746240696e-06
7.807614526e-06
6.79916282e-06
5.727829667e-06
4.580836041e-06
3.365880855e-06
2.070760333e-06
7.039863439e-07
1.686243551e-05
1.674220742e-05
1.661620295e-05
1.647868496e-05
1.633411592e-05
1.617639316e-05
1.601025321e-05
1.582907486e-05
1.563779833e-05
1.542931206e-05
1.520873676e-05
1.496849202e-05
1.471382537e-05
1.443668674e-05
1.414239486e-05
1.382238493e-05
1.348201411e-05
1.311216928e-05
1.271824204e-05
1.229061208e-05
1.183469136e-05
1.134042504e-05
1.081320464e-05
1.024256055e-05
9.633846415e-06
8.976173945e-06
8.274913369e-06
7.518855707e-06
6.713538552e-06
5.847705078e-06
4.927312003e-06
3.941354613e-06
2.896455944e-06
1.782156583e-06
6.058909071e-07
1.485774143e-05
1.475236721e-05
1.464194106e-05
1.452139991e-05
1.439468683e-05
1.425640367e-05
1.411073982e-05
1.395183491e-05
1.378406306e-05
1.36011477e-05
1.340761842e-05
1.319680214e-05
1.297332462e-05
1.27300814e-05
1.247175459e-05
1.219074505e-05
1.189178476e-05
1.156678512e-05
1.122052437e-05
1.084450427e-05
1.044351058e-05
1.000867684e-05
9.544737065e-06
9.042412086e-06
8.506380646e-06
7.926939514e-06
7.308803472e-06
6.64200383e-06
5.931443663e-06
5.167166576e-06
4.354453793e-06
3.48355974e-06
2.560331943e-06
1.575478518e-06
5.356460722e-07
1.377703491e-05
1.367958905e-05
1.357746719e-05
1.346598713e-05
1.334879468e-05
1.322089001e-05
1.308615059e-05
1.293914521e-05
1.278392304e-05
1.261467931e-05
1.24356024e-05
1.224053328e-05
1.203373976e-05
1.180864981e-05
1.156958103e-05
1.130947006e-05
1.103269642e-05
1.073173601e-05
1.041102884e-05
1.006270361e-05
9.691201405e-06
9.288323251e-06
8.858435483e-06
8.392913616e-06
7.896060571e-06
7.358818935e-06
6.785552001e-06
6.166971042e-06
5.507638697e-06
4.798294983e-06
4.043891039e-06
3.23533646e-06
2.378078364e-06
1.463417332e-06
4.97567603e-07
-9.765767763e-05
0.0002094978921
7.188484589e-06
0.0002026383183
6.329041182e-05
0.000219520279
0.0001124273636
0.0002414063706
0.0001579913337
0.0002723905793
0.0002069090933
0.0003154248699
0.0002642431167
0.0003759100373
0.0003379150735
0.0004652927279
0.0004444301481
0.0006127606775
0.0006329431892
0.0009115490329
-9.782205059e-05
0.0002099922965
7.457081083e-06
0.0002031333297
6.350069816e-05
0.0002200183778
0.0001126021258
0.0002418775481
0.0001582638834
0.0002727103691
0.0002073363211
0.0003153170262
0.0002649749855
0.0003746448929
0.0003393353222
0.0004607748837
0.0004472206007
0.000598129161
0.0006328151135
0.0008435182679
-9.799934646e-05
0.000211058298
8.020744769e-06
0.0002039617119
6.410332245e-05
0.0002207127122
0.0001132772487
0.0002424157363
0.0001591743434
0.0002728991727
0.0002085425263
0.0003147611302
0.0002665536175
0.0003723656971
0.0003412997473
0.0004539726893
0.0004487706381
0.0005766448097
0.0006210057927
0.0007493474399
-9.800106179e-05
0.000212625233
8.96476417e-06
0.0002050290172
6.518636268e-05
0.0002214850517
0.0001144937908
0.0002428811857
0.0001606370882
0.000272781082
0.0002102654059
0.0003134727044
0.0002685371734
0.0003685614396
0.0003432116925
0.0004444361973
0.000447737371
0.0005514789047
0.0005971286266
0.0006710761706
-9.764843297e-05
0.0002145698309
1.038530733e-05
0.0002062294543
6.678232858e-05
0.0002221885964
0.0001161793098
0.0002430357918
0.0001624687782
0.0002720359575
0.000212245591
0.0003111167419
0.0002706297639
0.000363078556
0.0003447683107
0.0004324597591
0.0004444039429
0.0005238272693
0.0005688118229
0.0006086042294
-9.675427657e-05
0.0002167034052
1.232831239e-05
0.0002073569691
6.882778827e-05
0.0002225925419
0.000118195642
0.0002426678459
0.0001645351463
0.0002705328097
0.0002144166813
0.0003077279075
0.0002727769154
0.000356297485
0.0003456133282
0.0004191564153
0.000438039853
0.0004961464983
0.0005376797165
0.0005554942551
-9.516408993e-05
0.0002188103326
1.477040885e-05
0.0002082105781
7.122666988e-05
0.000222549442
0.0001204678915
0.000241716617
0.0001668357121
0.000268293547
0.0002168127664
0.0003034074348
0.0002749047488
0.000348454363
0.0003454184613
0.0004050421872
0.0004285316622
0.0004694159633
0.0005045329864
0.0005092712193
-9.277388033e-05
0.0002206880881
1.766252406e-05
0.0002086634137
7.392295095e-05
0.0002220144665
0.0001229986034
0.0002401824849
0.0001694018235
0.0002653374011
0.0002193919991
0.0002982411409
0.0002767660288
0.0003398281247
0.0003437557011
0.0003906056107
0.0004160902202
0.0004438947003
0.0004709602231
0.0004687733773
-8.95353615e-05
0.0002221872132
2.099020516e-05
0.0002086460026
7.691065549e-05
0.0002209709801
0.0001258117817
0.0002380459097
0.0001722303883
0.0002616603138
0.0002220464928
0.0002923327387
0.0002780829608
0.0003307111017
0.0003403247973
0.0003762068201
0.0004011579803
0.0004196189556
0.0004383872333
0.0004328416069
-8.544884116e-05
0.0002232239022
2.476499963e-05
0.0002081186849
8.020728006e-05
0.0002193880585
0.0001289192208
0.0002352737874
0.0001752797248
0.0002572864874
0.0002246203993
0.0002858430559
0.0002785707133
0.0003213668098
0.0003349881293
0.0003619905974
0.0003843899915
0.0003964642429
0.0004077217866
0.0004006126327
-8.055006636e-05
0.0002237457319
2.901380317e-05
0.0002070417698
8.383174505e-05
0.0002172231476
0.0001323160546
0.000231846154
0.0001784773219
0.0002522849738
0.0002269214986
0.0002789645345
0.0002779662703
0.0003119861819
0.0003277772045
0.0003479471781
0.0003665248507
0.0003742635097
0.0003794366652
0.0003715815777
-7.489804094e-05
0.0002237079292
3.376862479e-05
0.0002053708922
8.779706041e-05
0.0002144374712
0.0001359787438
0.000227771949
0.0001817158169
0.000246768044
0.0002287307227
0.0002718883263
0.0002760700245
0.0003026598728
0.0003188884329
0.000333983843
0.0003482436436
0.0003529226788
0.0003536549798
0.00034542635
-6.856258994e-05
0.0002230614833
3.905840624e-05
0.0002030621663
9.210518132e-05
0.0002110068622
0.0001398584502
0.0002230966603
0.0001848503593
0.0002408830916
0.0002298222388
0.0002647750049