/*--------------------------------*- C++ -*----------------------------------*\
| =========                 |                                                 |
| \\      /  F ield         | OpenFOAM: The Open Source CFD Toolbox           |
|  \\    /   O peration     | Version:  v1806                                 |
|   \\  /    A nd           | Web:      www.OpenFOAM.com                      |
|    \\/     M anipulation  |                                                 |
\*---------------------------------------------------------------------------*/
FoamFile
{
    version     2.0;
    format      ascii;
    class       volVectorField;
    location    "1000";
    object      U;
}
// * * * * * * * * * * * * * * * * * * * * * * * * * * * * * * * * * * * * * //

dimensions      [0 1 -1 0 0 0 0];


internalField   nonuniform List<vector> 
2475
(
(0.08324365002 0.004800252463 0)
(0.05954618262 0.003039250948 0)
(0.03982690433 0.001338032992 0)
(0.02797280433 0.0003597216536 0)
(0.02216081352 2.364422228e-05 0)
(0.01912090239 -1.656567922e-05 0)
(0.01720845887 6.41029274e-06 0)
(0.01575547422 1.822580467e-05 0)
(0.01453981354 1.855101613e-05 0)
(0.01351858693 1.581427141e-05 0)
(0.01264771275 1.360439088e-05 0)
(0.01189839841 1.177604067e-05 0)
(0.01123295803 1.032454596e-05 0)
(0.01064413126 8.976699658e-06 0)
(0.01010697029 7.870208201e-06 0)
(0.009626151771 6.881787326e-06 0)
(0.009177824064 6.060968008e-06 0)
(0.00877511709 5.34916336e-06 0)
(0.008390929245 4.730890317e-06 0)
(0.008047691868 4.214279548e-06 0)
(0.007711140086 3.736737109e-06 0)
(0.007415473705 3.358853515e-06 0)
(0.007114608199 2.982856117e-06 0)
(0.006858895151 2.703820065e-06 0)
(0.006584193727 2.405243766e-06 0)
(0.006363949716 2.19453e-06 0)
(0.006106870476 1.961193112e-06 0)
(0.005920355181 1.79196382e-06 0)
(0.005671981707 1.623923398e-06 0)
(0.005520441633 1.466186494e-06 0)
(0.005269760419 1.381468496e-06 0)
(0.005158371037 1.190220957e-06 0)
(0.004889632313 1.24376934e-06 0)
(0.004828658006 9.367189867e-07 0)
(0.004517259829 1.283377884e-06 0)
(0.1004508015 0.006031568316 0)
(0.09680952945 0.007099406082 0)
(0.08773566977 0.005800139375 0)
(0.07705723672 0.00367500007 0)
(0.0674136848 0.002002899653 0)
(0.05954317901 0.001117634362 0)
(0.0534301649 0.0007180965437 0)
(0.04869010679 0.000517869727 0)
(0.04486722414 0.0003959633684 0)
(0.04170375807 0.0003124664621 0)
(0.0390042481 0.000253838724 0)
(0.03667885193 0.0002106378225 0)
(0.03461614843 0.0001777127284 0)
(0.03279436113 0.0001513982446 0)
(0.03113424682 0.0001301057468 0)
(0.02965017037 0.0001126160916 0)
(0.02826669425 9.800992605e-05 0)
(0.0270254516 8.591985028e-05 0)
(0.02584100583 7.545911104e-05 0)
(0.02478415841 6.684386848e-05 0)
(0.02374721176 5.906754242e-05 0)
(0.02283754813 5.280658717e-05 0)
(0.02191094854 4.684245876e-05 0)
(0.02112471223 4.22487542e-05 0)
(0.02027903284 3.754399193e-05 0)
(0.01960225057 3.417667638e-05 0)
(0.01881127357 3.036695413e-05 0)
(0.01823845573 2.793516542e-05 0)
(0.01747505849 2.477816581e-05 0)
(0.01700984436 2.308238219e-05 0)
(0.01624092712 2.04366445e-05 0)
(0.01589879393 1.931429422e-05 0)
(0.01507780221 1.720201766e-05 0)
(0.01488948579 1.642285265e-05 0)
(0.0139463275 1.54437549e-05 0)
(0.1011032135 0.006256692521 0)
(0.1038032443 0.00771286845 0)
(0.1034492719 0.006919964194 0)
(0.09995704083 0.005218156842 0)
(0.09486943453 0.003702208254 0)
(0.0892737214 0.002705831105 0)
(0.0837449848 0.002060833964 0)
(0.07855724107 0.001599606593 0)
(0.07374745844 0.001256706749 0)
(0.06938136146 0.001001280114 0)
(0.06541521387 0.0008124752482 0)
(0.06186546938 0.0006707222666 0)
(0.05863184828 0.0005623047479 0)
(0.0557291082 0.0004771724959 0)
(0.05304454876 0.0004088575174 0)
(0.05062407814 0.000353458798 0)
(0.04834411344 0.000307251868 0)
(0.04628981782 0.0002692099477 0)
(0.04431334337 0.0002362962434 0)
(0.04254732328 0.0002092286244 0)
(0.04080184561 0.000184845898 0)
(0.03927171666 0.0001651756697 0)
(0.03770204903 0.000146518268 0)
(0.03637342702 0.000132084419 0)
(0.03493411095 0.0001173717694 0)
(0.03378676715 0.000106811941 0)
(0.03243605801 9.485244166e-05 0)
(0.03146279845 8.729834476e-05 0)
(0.03015660638 7.726006095e-05 0)
(0.02936485494 7.216704271e-05 0)
(0.02804887855 6.347884869e-05 0)
(0.02746535186 6.049055675e-05 0)
(0.02606344011 5.296153508e-05 0)
(0.02573994999 5.16235398e-05 0)
(0.0241395825 4.644719867e-05 0)
(0.1007520752 0.005481866084 0)
(0.1035486923 0.006916514106 0)
(0.1057739108 0.006595949579 0)
(0.1060795358 0.005495148212 0)
(0.1048188763 0.004371307431 0)
(0.1026411212 0.003558223705 0)
(0.09992905979 0.002981847224 0)
(0.09691305635 0.002522760496 0)
(0.09363269638 0.00213839562 0)
(0.09024395562 0.001814474765 0)
(0.08677409637 0.00154401612 0)
(0.08337445307 0.001318602997 0)
(0.08001106349 0.001130974575 0)
(0.07681826478 0.0009750158115 0)
(0.07370311872 0.000844333802 0)
(0.07080505575 0.0007357116773 0)
(0.06797548338 0.0006431580106 0)
(0.06538380793 0.0005661736393 0)
(0.06282277017 0.0004987735447 0)
(0.06051773976 0.0004430559367 0)
(0.0581883429 0.0003924681764 0)
(0.05614438559 0.0003515031287 0)
(0.05400495097 0.0003124247213 0)
(0.05220112981 0.0002821054924 0)
(0.05020870115 0.0002510495496 0)
(0.04863293478 0.000228746736 0)
(0.04674165816 0.0002033059618 0)
(0.04539392033 0.0001873437817 0)
(0.04355023344 0.0001657677539 0)
(0.04244718114 0.0001551322425 0)
(0.04058113431 0.0001361284142 0)
(0.03976371137 0.0001302399143 0)
(0.03777475969 0.0001131685409 0)
(0.03731697407 0.0001113341917 0)
(0.03505598287 9.793189113e-05 0)
(0.1003678745 0.004832610886 0)
(0.102499137 0.006216966039 0)
(0.1048008844 0.006123383851 0)
(0.1061052425 0.005354401655 0)
(0.1063922653 0.004483158486 0)
(0.106056675 0.003820479636 0)
(0.1052946545 0.003345384436 0)
(0.1042562345 0.002962713706 0)
(0.1028586498 0.002633778571 0)
(0.1012162196 0.002345332082 0)
(0.09925914078 0.0020907 0)
(0.09715206332 0.00186452153 0)
(0.09480016213 0.001661811096 0)
(0.09240291597 0.001481403066 0)
(0.08982443482 0.001318976251 0)
(0.08730377381 0.001176240043 0)
(0.08464373982 0.001047451595 0)
(0.08213331193 0.0009363020944 0)
(0.07949280368 0.0008348996627 0)
(0.07708324583 0.0007492903867 0)
(0.07451766584 0.0006692249664 0)
(0.07226364007 0.0006037046548 0)
(0.06979217241 0.000539740494 0)
(0.06772619126 0.0004899348877 0)
(0.06534229489 0.0004378704762 0)
(0.06348795525 0.000400563761 0)
(0.06116533755 0.0003571093655 0)
(0.05954816946 0.0003301137699 0)
(0.05724075891 0.0002926527713 0)
(0.05589840812 0.0002746448267 0)
(0.05353377883 0.0002410828574 0)
(0.05252795386 0.0002313841436 0)
(0.049993047 0.0002005065972 0)
(0.04942224954 0.0001982752552 0)
(0.04654303607 0.0001722526294 0)
(0.0997924798 0.004341623953 0)
(0.1014394245 0.005622608243 0)
(0.1033980712 0.005642339394 0)
(0.104756955 0.005063889244 0)
(0.1054100369 0.004361040091 0)
(0.1056950135 0.003802367555 0)
(0.105710195 0.003397259684 0)
(0.1056322177 0.003074554842 0)
(0.1053055178 0.002800227207 0)
(0.1048658325 0.002562071953 0)
(0.1041357774 0.002350740599 0)
(0.1033067246 0.002161177393 0)
(0.1021630661 0.001985921069 0)
(0.1009545427 0.001825562054 0)
(0.09941969888 0.00167357565 0)
(0.09788197492 0.001535022746 0)
(0.09601553305 0.001402033021 0)
(0.09423211709 0.001283116468 0)
(0.0921140847 0.001167599904 0)
(0.09018315125 0.001067445847 0)
(0.08789375962 0.0009681971618 0)
(0.08591151655 0.0008857932498 0)
(0.08351531384 0.0008010739826 0)
(0.08156670577 0.0007349548431 0)
(0.07910360874 0.000662470256 0)
(0.07726158604 0.000611004284 0)
(0.07474323286 0.000548184647 0)
(0.07307476233 0.0005099794142 0)
(0.0704819129 0.0004542118917 0)
(0.06905852308 0.0004284061718 0)
(0.06633493124 0.0003772259044 0)
(0.06524690796 0.0003635224363 0)
(0.06228598026 0.0003153289111 0)
(0.06165803687 0.0003130548829 0)
(0.05828203313 0.0002705080068 0)
(0.09911576611 0.003928705293 0)
(0.1003961283 0.005054241271 0)
(0.1020162223 0.005160270698 0)
(0.1032692355 0.004739176906 0)
(0.103950526 0.004178547516 0)
(0.1043943485 0.00370229956 0)
(0.1046086056 0.003341556878 0)
(0.1048471413 0.003052332577 0)
(0.1048971657 0.002807811395 0)
(0.1049846126 0.002600346446 0)
(0.1048385623 0.0024187852 0)
(0.1047433916 0.002260208951 0)
(0.1043583836 0.002113745722 0)
(0.1040367632 0.001982173147 0)
(0.1033618898 0.001854638348 0)
(0.1027792923 0.001739197309 0)
(0.1017813971 0.00162313521 0)
(0.1009299488 0.001519368063 0)
(0.09960177589 0.001411799511 0)
(0.09850452683 0.001318509401 0)
(0.09686321782 0.001218665041 0)
(0.09557097504 0.001136233922 0)
(0.09364958557 0.001044116929 0)
(0.09223326775 0.0009734096537 0)
(0.09006830579 0.00088887113 0)
(0.08861086957 0.0008306923203 0)
(0.08622902905 0.0007529827904 0)
(0.08482084098 0.0007079983755 0)
(0.08222648827 0.0006356757115 0)
(0.08096661442 0.0006046145641 0)
(0.07812905002 0.0005357616746 0)
(0.0771331863 0.0005195451396 0)
(0.07397080802 0.0004528157666 0)
(0.07338305243 0.0004514929302 0)
(0.06974344039 0.0003905886882 0)
(0.09844040804 0.003577827717 0)
(0.09944195822 0.004534873292 0)
(0.1007500481 0.004710288451 0)
(0.101881357 0.004423239215 0)
(0.1025173256 0.003984313955 0)
(0.1030063698 0.003580684267 0)
(0.1032430368 0.003255588479 0)
(0.1035682099 0.002989572 0)
(0.1036883071 0.00276146956 0)
(0.1039467044 0.002570172838 0)
(0.103967622 0.002402779144 0)
(0.1041694053 0.002260998615 0)
(0.1040802388 0.00213038574 0)
(0.1042053867 0.002018046183 0)
(0.103965509 0.001908203896 0)
(0.1039773109 0.001813482734 0)
(0.1035361032 0.001715147504 0)
(0.1033970394 0.001631497095 0)
(0.1027051485 0.001539340858 0)
(0.1023879542 0.001463444952 0)
(0.1014057942 0.001374662239 0)
(0.1009022558 0.001305453057 0)
(0.09960479789 0.001218848316 0)
(0.09893097848 0.001156769156 0)
(0.09730741096 0.001071973109 0)
(0.09650497713 0.001018414789 0)
(0.09455297317 0.0009352210957 0)
(0.09368786426 0.0008921427726 0)
(0.09140316106 0.000810013815 0)
(0.09056398542 0.0007797541923 0)
(0.0879262445 0.0006976937812 0)
(0.08722476393 0.0006827553316 0)
(0.08418049969 0.000600348788 0)
(0.08375291599 0.000601803979 0)
(0.08019878253 0.0005248388502 0)
(0.09783358366 0.003284040031 0)
(0.09863244796 0.004077573648 0)
(0.09966040274 0.004297294428 0)
(0.1006684275 0.004118370259 0)
(0.1012363548 0.003782395128 0)
(0.1017427494 0.003447241138 0)
(0.1019595632 0.003157923841 0)
(0.1023145013 0.002915117889 0)
(0.1024158475 0.002700728922 0)
(0.1027248623 0.002521314202 0)
(0.1027502855 0.002361228846 0)
(0.1030476702 0.002228521052 0)
(0.1030114601 0.002104350093 0)
(0.1033054154 0.002001945382 0)
(0.1031942464 0.001899974411 0)
(0.1034739801 0.001817377585 0)
(0.1032585653 0.001728835517 0)
(0.103502305 0.001659498277 0)
(0.1031418315 0.001578494649 0)
(0.1033218593 0.001518277286 0)
(0.1027685641 0.001440756593 0)
(0.1028576716 0.001387316293 0)
(0.1020623188 0.001310543108 0)
(0.1020413132 0.001263023039 0)
(0.1009583421 0.001185208522 0)
(0.1008232913 0.001144057655 0)
(0.09941390079 0.001064009684 0)
(0.09918182824 0.001030838666 0)
(0.09741344877 0.0009476156954 0)
(0.09712569866 0.0009250286028 0)
(0.09496707184 0.0008378289579 0)
(0.09468987529 0.0008289781252 0)
(0.09210256163 0.0007383032957 0)
(0.09192164077 0.0007445619169 0)
(0.08885336518 0.0006590634337 0)
(0.09733532962 0.003035419488 0)
(0.09798890564 0.003680031425 0)
(0.09877790395 0.003919516767 0)
(0.09966542347 0.003826617276 0)
(0.1001579921 0.003578062683 0)
(0.1006667465 0.00330765991 0)
(0.1008554149 0.003055021445 0)
(0.1012235721 0.002837090595 0)
(0.1012921996 0.00263689317 0)
(0.1016170911 0.002469266321 0)
(0.1016103415 0.002314931394 0)
(0.1019329961 0.002189116285 0)
(0.1018742716 0.002067817409 0)
(0.102215207 0.001971147087 0)
(0.1021065657 0.001871692224 0)
(0.1024719995 0.001795412235 0)
(0.1023037927 0.001710226175 0)
(0.1026912076 0.001648669537 0)
(0.1024437667 0.001572437602 0)
(0.1028428182 0.001521833974 0)
(0.102486754 0.001450560152 0)
(0.1028803034 0.001408446496 0)
(0.1023775119 0.001338959217 0)
(0.1027440592 0.00130392243 0)
(0.1020501577 0.001233608054 0)
(0.1023679471 0.001205251629 0)
(0.1014359791 0.001131918515 0)
(0.1016881921 0.001110929195 0)
(0.1004727603 0.001032748006 0)
(0.1006524013 0.001020909408 0)
(0.09911320054 0.0009366349072 0)
(0.09922538034 0.0009363902945 0)
(0.09733003506 0.0008470046733 0)
(0.09738658847 0.0008586332725 0)
(0.09511574785 0.0007754635434 0)
(0.0969671734 0.002819986319 0)
(0.09751257569 0.00333753407 0)
(0.09810966805 0.003577717065 0)
(0.09888008718 0.003551570138 0)
(0.09930130644 0.003376168689 0)
(0.0997968106 0.003165025768 0)
(0.09996235212 0.002948901323 0)
(0.1003298072 0.002756980679 0)
(0.1003757743 0.002572215933 0)
(0.1006979734 0.002417231589 0)
(0.1006676423 0.002269154663 0)
(0.1009848002 0.002150093361 0)
(0.100903668 0.002031240669 0)
(0.1012388871 0.001939047519 0)
(0.1011151688 0.001840647856 0)
(0.1014800059 0.001768179996 0)
(0.1013138039 0.001683806771 0)
(0.1017140069 0.001626240325 0)
(0.1014997002 0.001551295987 0)
(0.1019359956 0.001505431116 0)
(0.1016623221 0.00143643734 0)
(0.1021297956 0.001400184934 0)
(0.1017792182 0.0013342937 0)
(0.1022663796 0.001306369242 0)
(0.1018147877 0.001241047749 0)
(0.1023031237 0.001220866375 0)
(0.1017207165 0.001153753456 0)
(0.1021851955 0.001141463312 0)
(0.1014391097 0.001070409897 0)
(0.1018494288 0.001066915396 0)
(0.1009082908 0.0009904592329 0)
(0.1012295677 0.0009969687289 0)
(0.1000699929 0.0009164485019 0)
(0.1002593884 0.0009314485299 0)
(0.09887394314 0.0008599826926 0)
(0.09673633906 0.002629319662 0)
(0.09719355316 0.003044127807 0)
(0.09764694409 0.003271819779 0)
(0.09830231994 0.003294649403 0)
(0.09866463714 0.003179205622 0)
(0.09912914078 0.003020666435 0)
(0.09928439807 0.002840273143 0)
(0.09963414654 0.002674801329 0)
(0.09967689734 0.002507006607 0)
(0.09997756126 0.002365412881 0)
(0.09994689246 0.002224900315 0)
(0.1002347156 0.002112732499 0)
(0.1001561652 0.001997162836 0)
(0.1004531811 0.001908954889 0)
(0.1003379084 0.001812013554 0)
(0.1006557093 0.001742213771 0)
(0.1005083692 0.001658595539 0)
(0.1008536414 0.001603104414 0)
(0.1006755067 0.001528834891 0)
(0.1010515077 0.001484871718 0)
(0.100841571 0.001416942361 0)
(0.1012480506 0.001382721589 0)
(0.1010030658 0.001318720235 0)
(0.1014351583 0.001293186688 0)
(0.1011491994 0.001231001246 0)
(0.1015956767 0.00121367808 0)
(0.101259749 0.001151326724 0)
(0.1017010348 0.001142253463 0)
(0.1013033668 0.001077911545 0)
(0.101709663 0.001077555858 0)
(0.1012372683 0.001010094036 0)
(0.1015668829 0.001018792464 0)
(0.1010086331 0.0009500807312 0)
(0.1012057817 0.0009649905344 0)
(0.1005546968 0.0009090680254 0)
(0.09663635906 0.002457931996 0)
(0.09701473778 0.002792461209 0)
(0.09736842036 0.003000145508 0)
(0.0979113595 0.003056162003 0)
(0.09823068301 0.002988947508 0)
(0.09864761562 0.002875835142 0)
(0.09880697785 0.002729793359 0)
(0.09912266933 0.002590352305 0)
(0.0991819067 0.002440990756 0)
(0.09944448461 0.002313172512 0)
(0.09943679082 0.002181843228 0)
(0.09967698834 0.00207661532 0)
(0.0996268628 0.001965661747 0)
(0.09986448276 0.001881048842 0)
(0.0997848019 0.001786651264 0)
(0.1000301697 0.001718751187 0)
(0.09992808287 0.001636785547 0)
(0.1001867494 0.001582231283 0)
(0.1000667702 0.001509325161 0)
(0.100341255 0.001465684208 0)
(0.1002068429 0.001399212364 0)
(0.1004971883 0.001364887095 0)
(0.100351453 0.001302765689 0)
(0.100654911 0.001276826902 0)
(0.1005007644 0.00121729759 0)
(0.1008107885 0.001199358089 0)
(0.1006506989 0.001140851858 0)
(0.1009553598 0.001130976735 0)
(0.100790856 0.001072150104 0)
(0.1010708618 0.001070695901 0)
(0.1009019396 0.001010976375 0)
(0.1011286032 0.001017939676 0)
(0.1009529797 0.0009598281488 0)
(0.1010865855 0.0009718942578 0)
(0.1008961121 0.0009298412527 0)
(0.0966484024 0.002302307796 0)
(0.09695441005 0.002575036221 0)
(0.09724269081 0.002759982167 0)
(0.09768018036 0.00283606619 0)
(0.09796959257 0.002806688834 0)
(0.09832900437 0.002731689028 0)
(0.09850138656 0.002617856966 0)
(0.09877363641 0.002503304755 0)
(0.0988610324 0.002373442676 0)
(0.09907794855 0.002259582619 0)
(0.09910648387 0.002139006095 0)
(0.09929271895 0.002040850936 0)
(0.09928466462 0.001935885041 0)
(0.09945759079 0.001854698922 0)
(0.09942638042 0.001763965425 0)
(0.09959527534 0.001697548518 0)
(0.09954919747 0.001618169275 0)
(0.09971883223 0.001563964985 0)
(0.09966362035 0.001493199126 0)
(0.09983593907 0.001449157812 0)
(0.09977630523 0.001384735583 0)
(0.09995128709 0.001349439549 0)
(0.09989175826 0.001289521803 0)
(0.1000676777 0.001262128918 0)
(0.1000129816 0.001205182372 0)
(0.1001862428 0.001185349756 0)
(0.1001413169 0.00113006841 0)
(0.1003059263 0.001117876431 0)
(0.1002755222 0.001063262794 0)
(0.1004222177 0.001059036504 0)
(0.1004099808 0.001004983525 0)
(0.1005251073 0.001008610769 0)
(0.1005318075 0.0009581726423 0)
(0.1005962438 0.0009663734236 0)
(0.1006145295 0.0009341251243 0)
(0.09674600354 0.002160136579 0)
(0.09698868218 0.002385205455 0)
(0.09723311765 0.002547852883 0)
(0.09757873685 0.002633919685 0)
(0.09784429487 0.002633125196 0)
(0.09814608358 0.002589236112 0)
(0.09833103764 0.002504685498 0)
(0.09856072766 0.002413461218 0)
(0.09867605939 0.002303485059 0)
(0.09885152553 0.002203762355 0)
(0.09891571268 0.002095111696 0)
(0.09905559922 0.002004453693 0)
(0.09908754588 0.001906542375 0)
(0.09920688628 0.00182904901 0)
(0.09921941704 0.001742776639 0)
(0.09932691172 0.001677950552 0)
(0.0993283501 0.001601714949 0)
(0.09942873884 0.001547891855 0)
(0.09942480466 0.001479622377 0)
(0.09952029938 0.001435203631 0)
(0.0995153939 0.001372994567 0)
(0.09960661233 0.001336785737 0)
(0.09960456909 0.001279016897 0)
(0.09969103163 0.001250281237 0)
(0.09969549966 0.001195584379 0)
(0.09977585146 0.001174016768 0)
(0.09979040172 0.001121257045 0)
(0.09986243478 0.001106924239 0)
(0.0998904026 0.001055336197 0)
(0.09995087238 0.001048492588 0)
(0.09999484642 0.0009983153116 0)
(0.1000390464 0.0009987264062 0)
(0.1000996726 0.0009534386648 0)
(0.1001208704 0.0009579877109 0)
(0.1001926029 0.0009320066705 0)
(0.0969020753 0.002029709826 0)
(0.09709386673 0.002217552417 0)
(0.09730476187 0.002359897298 0)
(0.09757689336 0.00244888918 0)
(0.09781818906 0.002468568236 0)
(0.09807027582 0.002449429784 0)
(0.09825977099 0.002390572631 0)
(0.09845547293 0.002320870207 0)
(0.09858944038 0.002230365613 0)
(0.09873552848 0.002144968497 0)
(0.0988249809 0.002048870856 0)
(0.09893447409 0.001966416377 0)
(0.09899422974 0.001876231264 0)
(0.09907981835 0.001803110178 0)
(0.09912125541 0.001721743364 0)
(0.09919121184 0.001659077186 0)
(0.09922204008 0.00158618826 0)
(0.09928137714 0.001533252793 0)
(0.09930679529 0.001467478928 0)
(0.09935832022 0.001423183552 0)
(0.0993820072 0.001363014097 0)
(0.09942716882 0.001326428759 0)
(0.09945193161 0.001270478721 0)
(0.09949134529 0.001240993253 0)
(0.09951948111 0.00118806259 0)
(0.0995532299 0.001165409214 0)
(0.09958668679 0.001114525709 0)
(0.09961446028 0.001098732455 0)
(0.09965484838 0.00104934082 0)
(0.09967592575 0.001040542292 0)
(0.09972435488 0.0009931827386 0)
(0.09973741332 0.000990972058 0)
(0.09979388843 0.0009494410571 0)
(0.09979678326 0.0009509040554 0)
(0.09985718208 0.0009291410217 0)
(0.09709450795 0.001909639568 0)
(0.09724847015 0.00206791861 0)
(0.09742978775 0.002192408013 0)
(0.09764702319 0.002279865352 0)
(0.09786128628 0.002313196606 0)
(0.0980743679 0.002313189185 0)
(0.09825829004 0.002276063746 0)
(0.09843024785 0.002225840348 0)
(0.09857108735 0.002153713134 0)
(0.09870049198 0.002082672758 0)
(0.09880270219 0.001999292995 0)
(0.09889747128 0.001925807617 0)
(0.09897161822 0.001843755491 0)
(0.09904193756 0.001775854754 0)
(0.0990975332 0.001699677212 0)
(0.09915103453 0.001639926793 0)
(0.099194945 0.001570481813 0)
(0.09923676061 0.001519097367 0)
(0.09927364864 0.001455758024 0)
(0.0993070106 0.001412191093 0)
(0.09934001586 0.001353882636 0)
(0.09936692071 0.001317495537 0)
(0.09939820446 0.001263103873 0)
(0.09941987263 0.001233426297 0)
(0.09945096536 0.001181949016 0)
(0.09946811399 0.00115874937 0)
(0.09950011093 0.001109400648 0)
(0.09951307453 0.001092655247 0)
(0.09954672644 0.001045103098 0)
(0.09955544051 0.001034810168 0)
(0.09959112802 0.0009898785629 0)
(0.09959499991 0.0009854672047 0)
(0.09963235088 0.0009471693601 0)
(0.09963027152 0.0009460225563 0)
(0.09966589584 0.0009275119872 0)
(0.09730774293 0.001798725558 0)
(0.0974344899 0.001933155982 0)
(0.09758861305 0.002042141316 0)
(0.09776586497 0.002125521861 0)
(0.09795180295 0.002167096856 0)
(0.09813485275 0.002181331697 0)
(0.09830570583 0.002161956702 0)
(0.09846121295 0.002128914008 0)
(0.09859990392 0.002073624517 0)
(0.09872094529 0.002016626882 0)
(0.09882673143 0.001945821999 0)
(0.0989167884 0.00188188177 0)
(0.09899625341 0.001808262686 0)
(0.09906285142 0.001746346746 0)
(0.09912349583 0.001675665176 0)
(0.09917328006 0.001619529039 0)
(0.09922107137 0.001553721811 0)
(0.09925897373 0.001504471787 0)
(0.09929815048 0.001443651917 0)
(0.09932752511 0.001401294421 0)
(0.0993609518 0.001344857858 0)
(0.09938401211 0.001309068363 0)
(0.09941359678 0.001256207974 0)
(0.09943177722 0.001226669986 0)
(0.09945878315 0.001176611114 0)
(0.09947296734 0.001153136001 0)
(0.09949821164 0.001105301075 0)
(0.09950883039 0.001087818732 0)
(0.09953279063 0.001042106005 0)
(0.09953980553 0.001030495522 0)
(0.09956261007 0.0009879840578 0)
(0.0995654345 0.0009815709544 0)
(0.09958650997 0.0009463800555 0)
(0.0995841943 0.0009429770109 0)
(0.09960050782 0.0009272199282 0)
(0.09753126301 0.00169596261 0)
(0.09763791033 0.001810895091 0)
(0.09776786247 0.001906450219 0)
(0.09791529044 0.001984460341 0)
(0.09807427949 0.002030258314 0)
(0.09823312327 0.002054567664 0)
(0.09838743137 0.002049213304 0)
(0.09852986229 0.002030852503 0)
(0.09866149954 0.0019906087 0)
(0.09877747309 0.001946920885 0)
(0.09888201509 0.001888321091 0)
(0.09897139807 0.001834182131 0)
(0.09905196873 0.001769238034 0)
(0.0991196315 0.001713867475 0)
(0.0991817076 0.001649056131 0)
(0.09923302706 0.001597084629 0)
(0.09928162541 0.001535244599 0)
(0.09932105172 0.001488573863 0)
(0.09936002227 0.00143052762 0)
(0.09939079844 0.001389710836 0)
(0.09942285722 0.0013353431 0)
(0.09944721536 0.001300384707 0)
(0.09947420767 0.001249222465 0)
(0.09949361997 0.001219977395 0)
(0.09951676888 0.001171496272 0)
(0.09953213016 0.001147834803 0)
(0.09955221197 0.001101677766 0)
(0.09956392542 0.00108350309 0)
(0.09958136279 0.001039792627 0)
(0.09958933816 0.001026902373 0)
(0.0996041715 0.0009869291871 0)
(0.09960780025 0.0009786282905 0)
(0.09961933385 0.0009465034152 0)
(0.09961780727 0.0009411557042 0)
(0.0996233168 0.0009277719543 0)
(0.09775773068 0.001600441809 0)
(0.09784862341 0.00169925548 0)
(0.09795806725 0.001783167136 0)
(0.09808214391 0.00185526592 0)
(0.09821733122 0.0019024763 0)
(0.09835546499 0.001933425035 0)
(0.09849273501 0.001938767465 0)
(0.09862295196 0.001932523348 0)
(0.09874557132 0.00190540681 0)
(0.098856627 0.001873933713 0)
(0.09895792587 0.001826960445 0)
(0.09904700344 0.001782551673 0)
(0.0991272962 0.001726428183 0)
(0.09919681537 0.00167795098 0)
(0.09925962859 0.001619400024 0)
(0.09931355075 0.001572009731 0)
(0.09936287732 0.00151454402 0)
(0.09940497681 0.001470799104 0)
(0.099444224 0.001415882125 0)
(0.09947748166 0.001376850888 0)
(0.09950921662 0.001324853292 0)
(0.09953578398 0.001290876664 0)
(0.09956182845 0.001241675601 0)
(0.09958315904 0.001212798127 0)
(0.0996047552 0.001166134766 0)
(0.0996217357 0.00114230705 0)
(0.0996396831 0.001098050219 0)
(0.09965270696 0.001079176994 0)
(0.09966743288 0.001037659271 0)
(0.09967641478 0.001023504319 0)
(0.09968792649 0.000986177303 0)
(0.09969232616 0.0009761114333 0)
(0.09969987761 0.0009469715788 0)
(0.09969911442 0.0009399922591 0)
(0.09970038265 0.000928615367 0)
(0.09798197214 0.00151141564 0)
(0.0980598721 0.001596773413 0)
(0.09815240797 0.001670572431 0)
(0.09825744058 0.001736648068 0)
(0.09837244676 0.001783403598 0)
(0.09849227822 0.001818269692 0)
(0.09861348168 0.001831451439 0)
(0.09873148201 0.00183483649 0)
(0.09884452795 0.001818883083 0)
(0.09894965521 0.001798270023 0)
(0.09904685047 0.001762134114 0)
(0.09913453906 0.001727097362 0)
(0.0992140933 0.001679784831 0)
(0.09928467987 0.001638355332 0)
(0.09934833223 0.001586395804 0)
(0.09940434246 0.001543900476 0)
(0.09945500764 0.001491223677 0)
(0.09949941989 0.001450702033 0)
(0.09953997352 0.001399306289 0)
(0.09957539866 0.00136228305 0)
(0.09960819832 0.001312998808 0)
(0.09963664179 0.001280145961 0)
(0.09966345745 0.001233203705 0)
(0.09968632768 0.001204769584 0)
(0.09970841418 0.00116018333 0)
(0.09972659424 0.001136221251 0)
(0.09974478037 0.00109408458 0)
(0.09975868343 0.00107453275 0)
(0.09977341646 0.001035368036 0)
(0.0997830117 0.001020007593 0)
(0.09979429747 0.0009853739094 0)
(0.09979917209 0.0009737212117 0)
(0.0998062896 0.0009474104823 0)
(0.09980612541 0.0009391310098 0)
(0.09980725336 0.0009293894738 0)
(0.09820072552 0.001428209233 0)
(0.09826762859 0.001502243458 0)
(0.09834633649 0.001567254297 0)
(0.09843549677 0.001627444196 0)
(0.09853364202 0.001672573254 0)
(0.09863722004 0.001709293754 0)
(0.09874381482 0.001727946961 0)
(0.09884964659 0.001738675605 0)
(0.09895308278 0.001731961493 0)
(0.09905121469 0.001720708372 0)
(0.0991437201 0.001694436615 0)
(0.0992286796 0.001668174728 0)
(0.09930705271 0.001629477158 0)
(0.09937755508 0.001595066942 0)
(0.09944200259 0.001549914704 0)
(0.09949922616 0.001512524962 0)
(0.09955158211 0.001464999916 0)
(0.09959764728 0.001427953961 0)
(0.09964017614 0.00138045437 0)
(0.09967723956 0.00134564806 0)
(0.09971201364 0.001299413852 0)
(0.09974187382 0.001267829363 0)
(0.09977056044 0.001223434398 0)
(0.09979455036 0.001195532646 0)
(0.099818389 0.001153264401 0)
(0.09983738242 0.001129224035 0)
(0.09985721979 0.001089395645 0)
(0.09987166159 0.001069222761 0)
(0.09988796812 0.001032523685 0)
(0.09989790403 0.001016068187 0)
(0.09991070887 0.0009841149297 0)
(0.09991587375 0.0009711043683 0)
(0.09992454752 0.0009474186551 0)
(0.09992487194 0.000938170444 0)
(0.09992815116 0.0009297344406 0)
(0.0984121187 0.001350242145 0)
(0.09846963386 0.00141466933 0)
(0.09853698906 0.001472030605 0)
(0.0986128087 0.001526603042 0)
(0.09869688443 0.00156941018 0)
(0.0987861326 0.001606476774 0)
(0.09887965279 0.001628699099 0)
(0.09897368655 0.001644759742 0)
(0.09906769061 0.001645473042 0)
(0.09915808755 0.001642037917 0)
(0.09924537325 0.001624527111 0)
(0.09932643798 0.001606263558 0)
(0.09940302251 0.001575805845 0)
(0.09947233939 0.001548230019 0)
(0.09953721707 0.001509974714 0)
(0.09959479006 0.001477817679 0)
(0.09964878024 0.001435745355 0)
(0.09969586747 0.00140240786 0)
(0.09974057498 0.001359160532 0)
(0.09977881588 0.001326802189 0)
(0.09981595844 0.00128395484 0)
(0.09984688579 0.001253827852 0)
(0.09987797215 0.001212268628 0)
(0.09990280494 0.001185044034 0)
(0.09992902315 0.001145322451 0)
(0.09994860728 0.001121322276 0)
(0.09997080348 0.001083958378 0)
(0.09998561092 0.001063289423 0)
(0.1000042766 0.001029113906 0)
(0.100014431 0.001011742429 0)
(0.1000296378 0.0009823853011 0)
(0.100035017 0.0009682982635 0)
(0.1000462792 0.000946973473 0)
(0.1000470237 0.0009370828218 0)
(0.100053646 0.0009296365568 0)
(0.09861488945 0.001277087798 0)
(0.09866437958 0.001333316854 0)
(0.09872234855 0.001384021187 0)
(0.09878692524 0.001433320928 0)
(0.09885923035 0.001473439315 0)
(0.09893596245 0.001509789087 0)
(0.09901789822 0.001534098505 0)
(0.09910080636 0.001553777696 0)
(0.09918572089 0.00156026329 0)
(0.09926802717 0.001563123116 0)
(0.09934966415 0.001553177822 0)
(0.09942594801 0.0015419782 0)
(0.09950006634 0.001519189899 0)
(0.09956724589 0.001498074446 0)
(0.09963197815 0.001466621099 0)
(0.09968911389 0.001439679311 0)
(0.09974439071 0.001403225274 0)
(0.09979192907 0.00137374083 0)
(0.09983869052 0.001335009452 0)
(0.09987771959 0.001305286316 0)
(0.09991727574 0.001266098063 0)
(0.09994900993 0.001237606479 0)
(0.09998265763 0.001199122745 0)
(0.1000081598 0.001172733965 0)
(0.1000369969 0.001135746993 0)
(0.1000570579 0.001111940373 0)
(0.1000819078 0.001077160886 0)
(0.1000970113 0.001056173106 0)
(0.1001183806 0.001024548007 0)
(0.1001287172 0.001006499414 0)
(0.1001467348 0.0009796380848 0)
(0.100152307 0.0009647971874 0)
(0.1001666673 0.0009455963008 0)
(0.1001677809 0.0009353725678 0)
(0.1001783238 0.0009287121157 0)
(0.09880798733 0.001208131095 0)
(0.09885060382 0.00125732534 0)
(0.09890075459 0.001302234359 0)
(0.09895582986 0.001346652898 0)
(0.09901825203 0.001383946216 0)
(0.09908411909 0.001418886992 0)
(0.09915586742 0.001444192138 0)
(0.09922850178 0.001466125303 0)
(0.09930481096 0.001476969754 0)
(0.0993789829 0.001484752085 0)
(0.09945469755 0.001481213288 0)
(0.09952557617 0.001476127395 0)
(0.09959659141 0.001460358892 0)
(0.09966082894 0.001445261902 0)
(0.09972475937 0.001420424144 0)
(0.09978073359 0.001398637584 0)
(0.09983679431 0.001367911008 0)
(0.09988423947 0.001342429854 0)
(0.09993274395 0.001308456563 0)
(0.09997219581 0.001281597256 0)
(0.1000140186 0.001246332673 0)
(0.1000463342 0.001219711318 0)
(0.1000825145 0.001184528449 0)
(0.1001085578 0.00115919199 0)
(0.1001400642 0.001125092882 0)
(0.1001605379 0.001101684126 0)
(0.1001881457 0.001069548365 0)
(0.1002035212 0.001048458317 0)
(0.1002277434 0.001019327899 0)
(0.1002382578 0.001000862539 0)
(0.1002592899 0.0009763084408 0)
(0.1002650457 0.0009610242551 0)
(0.1002827828 0.0009436463992 0)
(0.100284209 0.0009333407795 0)
(0.1002989702 0.0009272428642 0)
(0.09899021721 0.001143267875 0)
(0.09902695579 0.001186367714 0)
(0.09907058081 0.001226192969 0)
(0.09911762313 0.001266083192 0)
(0.0991717493 0.001300501623 0)
(0.09922823935 0.001333531822 0)
(0.09929111145 0.001358967378 0)
(0.09935442384 0.001381994564 0)
(0.09942274763 0.0013959121 0)
(0.09948899353 0.001407287284 0)
(0.09955871027 0.001408933291 0)
(0.09962380431 0.001408877899 0)
(0.09969120775 0.001399274335 0)