# Moment      
# CofR        : (0.000000e+00 0.000000e+00 0.000000e+00)
#
# Time        	(total_x total_y total_z)	(pressure_x pressure_y pressure_z)	(viscous_x viscous_y viscous_z)
1             	(-1.684519e-28 3.870507e-26 -5.021632e-02)	(-1.480638e-27 1.737514e-25 -4.950754e-02)	(1.312186e-27 -1.350464e-25 -7.087795e-04)
2             	(-1.321140e-27 1.497460e-25 -5.844886e-03)	(-5.173967e-28 6.332881e-26 -5.640736e-03)	(-8.037430e-28 8.641722e-26 -2.041499e-04)
3             	(-4.901072e-28 5.710575e-26 -2.991995e-03)	(-1.010736e-28 1.629459e-26 -2.884443e-03)	(-3.890336e-28 4.081116e-26 -1.075523e-04)
4             	(-1.028996e-28 1.443050e-26 -2.372577e-03)	(1.176669e-29 3.189507e-27 -2.298006e-03)	(-1.146662e-28 1.124099e-26 -7.457119e-05)
5             	(8.463297e-30 2.616121e-27 -3.025141e-03)	(7.475965e-30 2.991835e-27 -2.966178e-03)	(9.873316e-31 -3.757145e-28 -5.896270e-05)
6             	(1.649009e-29 2.118786e-27 -2.782454e-03)	(-2.152881e-29 5.542268e-27 -2.733369e-03)	(3.801890e-29 -3.423482e-27 -4.908491e-05)
7             	(-9.516877e-31 3.995622e-27 -3.019609e-03)	(-4.376089e-29 7.517097e-27 -2.977032e-03)	(4.280920e-29 -3.521474e-27 -4.257722e-05)
8             	(-1.788813e-29 5.689005e-27 -2.849608e-03)	(-5.356053e-29 8.354783e-27 -2.811858e-03)	(3.567240e-29 -2.665778e-27 -3.774993e-05)
9             	(-2.712800e-29 6.593481e-27 -2.749439e-03)	(-5.579216e-29 8.531833e-27 -2.715567e-03)	(2.866415e-29 -1.938352e-27 -3.387125e-05)
10            	(-3.059507e-29 6.856089e-27 -2.336558e-03)	(-5.411330e-29 8.345332e-27 -2.305876e-03)	(2.351822e-29 -1.489244e-27 -3.068213e-05)
11            	(-3.018461e-29 6.761420e-27 -2.231267e-03)	(-5.233535e-29 8.160255e-27 -2.203277e-03)	(2.215074e-29 -1.398835e-27 -2.799012e-05)
12            	(-2.944027e-29 6.702165e-27 -2.124135e-03)	(-5.097678e-29 8.003684e-27 -2.098484e-03)	(2.153650e-29 -1.301518e-27 -2.565108e-05)
13            	(-2.856604e-29 6.581843e-27 -2.214732e-03)	(-5.003574e-29 7.877141e-27 -2.191104e-03)	(2.146970e-29 -1.295298e-27 -2.362848e-05)
14            	(-2.771254e-29 6.398152e-27 -2.299301e-03)	(-4.939682e-29 7.772760e-27 -2.277458e-03)	(2.168428e-29 -1.374608e-27 -2.184316e-05)
15            	(-2.699742e-29 6.220778e-27 -2.478740e-03)	(-4.890026e-29 7.680648e-27 -2.458467e-03)	(2.190283e-29 -1.459869e-27 -2.027315e-05)
16            	(-2.651195e-29 6.095153e-27 -2.567393e-03)	(-4.819230e-29 7.565880e-27 -2.548514e-03)	(2.168035e-29 -1.470727e-27 -1.887918e-05)
17            	(-2.578896e-29 5.955071e-27 -2.677929e-03)	(-4.762701e-29 7.472988e-27 -2.660297e-03)	(2.183806e-29 -1.517917e-27 -1.763239e-05)
18            	(-2.517234e-29 5.840485e-27 -2.928294e-03)	(-4.726406e-29 7.410439e-27 -2.911755e-03)	(2.209171e-29 -1.569954e-27 -1.653884e-05)
19            	(-2.478454e-29 5.763792e-27 -3.093292e-03)	(-4.690845e-29 7.357548e-27 -3.077753e-03)	(2.212391e-29 -1.593756e-27 -1.553880e-05)
20            	(-2.441880e-29 5.701563e-27 -3.334078e-03)	(-4.665290e-29 7.323469e-27 -3.319442e-03)	(2.223410e-29 -1.621906e-27 -1.463606e-05)
21            	(-2.414342e-29 5.660564e-27 -3.546067e-03)	(-4.653133e-29 7.310589e-27 -3.532236e-03)	(2.238791e-29 -1.650025e-27 -1.383112e-05)
22            	(-2.400379e-29 5.642344e-27 -3.809969e-03)	(-4.650772e-29 7.312445e-27 -3.796891e-03)	(2.250393e-29 -1.670101e-27 -1.307845e-05)
23            	(-2.394031e-29 5.638487e-27 -4.096219e-03)	(-4.661971e-29 7.331878e-27 -4.083820e-03)	(2.267940e-29 -1.693391e-27 -1.239947e-05)
24            	(-2.401552e-29 5.652442e-27 -4.337306e-03)	(-4.678021e-29 7.357252e-27 -4.325541e-03)	(2.276469e-29 -1.704810e-27 -1.176510e-05)
25            	(-2.412460e-29 5.671672e-27 -4.557978e-03)	(-4.700997e-29 7.390184e-27 -4.546807e-03)	(2.288537e-29 -1.718512e-27 -1.117118e-05)
26            	(-2.430073e-29 5.698123e-27 -4.779222e-03)	(-4.726219e-29 7.424793e-27 -4.768596e-03)	(2.296146e-29 -1.726669e-27 -1.062570e-05)
27            	(-2.448772e-29 5.725542e-27 -4.990982e-03)	(-4.754802e-29 7.462282e-27 -4.980857e-03)	(2.306030e-29 -1.736740e-27 -1.012452e-05)
28            	(-2.471012e-29 5.755805e-27 -5.180036e-03)	(-4.782498e-29 7.497788e-27 -5.170387e-03)	(2.311485e-29 -1.741983e-27 -9.649273e-06)
29            	(-2.491334e-29 5.783502e-27 -5.371244e-03)	(-4.812326e-29 7.535052e-27 -5.362032e-03)	(2.320992e-29 -1.751550e-27 -9.212308e-06)
30            	(-2.514289e-29 5.813112e-27 -5.545157e-03)	(-4.840162e-29 7.569405e-27 -5.536364e-03)	(2.325873e-29 -1.756293e-27 -8.792954e-06)
31            	(-2.534964e-29 5.839764e-27 -5.706916e-03)	(-4.867951e-29 7.603268e-27 -5.698511e-03)	(2.332988e-29 -1.763504e-27 -8.404520e-06)
32            	(-2.556294e-29 5.866372e-27 -5.858417e-03)	(-4.893163e-29 7.633779e-27 -5.850389e-03)	(2.336869e-29 -1.767407e-27 -8.027717e-06)
33            	(-2.574969e-29 5.889771e-27 -6.005714e-03)	(-4.917945e-29 7.663533e-27 -5.998034e-03)	(2.342975e-29 -1.773761e-27 -7.679591e-06)
34            	(-2.594076e-29 5.913023e-27 -6.141704e-03)	(-4.939841e-29 7.689673e-27 -6.134355e-03)	(2.345765e-29 -1.776649e-27 -7.348350e-06)
35            	(-2.610441e-29 5.933008e-27 -6.276178e-03)	(-4.960742e-29 7.714446e-27 -6.269139e-03)	(2.350301e-29 -1.781439e-27 -7.039148e-06)
36            	(-2.626643e-29 5.952294e-27 -6.405022e-03)	(-4.978843e-29 7.735745e-27 -6.398277e-03)	(2.352200e-29 -1.783451e-27 -6.745146e-06)
37            	(-2.640356e-29 5.968586e-27 -6.535860e-03)	(-4.995466e-29 7.755131e-27 -6.529387e-03)	(2.355110e-29 -1.786545e-27 -6.472368e-06)
38            	(-2.653354e-29 5.983649e-27 -6.671211e-03)	(-5.009418e-29 7.771220e-27 -6.665002e-03)	(2.356064e-29 -1.787571e-27 -6.209161e-06)
39            	(-2.663974e-29 5.995886e-27 -6.813935e-03)	(-5.021944e-29 7.785494e-27 -6.807970e-03)	(2.357970e-29 -1.789608e-27 -5.965000e-06)
40            	(-2.673887e-29 6.006965e-27 -6.965085e-03)	(-5.031912e-29 7.796636e-27 -6.959351e-03)	(2.358026e-29 -1.789671e-27 -5.733504e-06)
41            	(-2.681649e-29 6.015463e-27 -7.107625e-03)	(-5.040069e-29 7.805541e-27 -7.102108e-03)	(2.358420e-29 -1.790078e-27 -5.517481e-06)
42            	(-2.687879e-29 6.022101e-27 -7.311927e-03)	(-5.047003e-29 7.812950e-27 -7.306611e-03)	(2.359124e-29 -1.790849e-27 -5.316146e-06)
43            	(-2.693483e-29 6.027816e-27 -7.472844e-03)	(-5.051725e-29 7.817690e-27 -7.467717e-03)	(2.358241e-29 -1.789874e-27 -5.126979e-06)
44            	(-2.697216e-29 6.031320e-27 -7.697930e-03)	(-5.054943e-29 7.820631e-27 -7.692976e-03)	(2.357727e-29 -1.789312e-27 -4.953919e-06)
45            	(-2.699782e-29 6.033427e-27 -7.901179e-03)	(-5.056771e-29 7.821923e-27 -7.896387e-03)	(2.356988e-29 -1.788497e-27 -4.792082e-06)
46            	(-2.701305e-29 6.034273e-27 -8.119326e-03)	(-5.057229e-29 7.821614e-27 -8.114679e-03)	(2.355924e-29 -1.787341e-27 -4.646081e-06)
47            	(-2.701587e-29 6.033753e-27 -8.356000e-03)	(-5.057013e-29 7.820539e-27 -8.351487e-03)	(2.355426e-29 -1.786786e-27 -4.513293e-06)
48            	(-2.701491e-29 6.032754e-27 -8.609440e-03)	(-5.055739e-29 7.818255e-27 -8.605046e-03)	(2.354247e-29 -1.785500e-27 -4.394227e-06)
49            	(-2.700411e-29 6.030709e-27 -8.874149e-03)	(-5.054047e-29 7.815529e-27 -8.869860e-03)	(2.353636e-29 -1.784820e-27 -4.288237e-06)
50            	(-2.699106e-29 6.028408e-27 -9.145865e-03)	(-5.051693e-29 7.812080e-27 -9.141668e-03)	(2.352586e-29 -1.783672e-27 -4.197721e-06)
51            	(-2.697137e-29 6.025452e-27 -9.427037e-03)	(-5.049262e-29 7.808606e-27 -9.422916e-03)	(2.352125e-29 -1.783154e-27 -4.121899e-06)
52            	(-2.695191e-29 6.022557e-27 -9.716517e-03)	(-5.046546e-29 7.804865e-27 -9.712456e-03)	(2.351356e-29 -1.782308e-27 -4.061407e-06)
53            	(-2.692908e-29 6.019390e-27 -1.001653e-02)	(-5.043993e-29 7.801385e-27 -1.001252e-02)	(2.351085e-29 -1.781995e-27 -4.015702e-06)
54            	(-2.690821e-29 6.016498e-27 -1.032429e-02)	(-5.041416e-29 7.797948e-27 -1.032031e-02)	(2.350596e-29 -1.781450e-27 -3.984729e-06)
55            	(-2.688616e-29 6.013588e-27 -1.064023e-02)	(-5.039193e-29 7.794997e-27 -1.063626e-02)	(2.350577e-29 -1.781409e-27 -3.968752e-06)
56            	(-2.686750e-29 6.011124e-27 -1.096755e-02)	(-5.037141e-29 7.792313e-27 -1.096358e-02)	(2.350391e-29 -1.781189e-27 -3.967526e-06)
57            	(-2.684930e-29 6.008824e-27 -1.130174e-02)	(-5.035573e-29 7.790262e-27 -1.129776e-02)	(2.350643e-29 -1.781439e-27 -3.980437e-06)
58            	(-2.683544e-29 6.007078e-27 -1.164236e-02)	(-5.034310e-29 7.788630e-27 -1.163835e-02)	(2.350766e-29 -1.781552e-27 -4.007623e-06)
59            	(-2.682329e-29 6.005628e-27 -1.198671e-02)	(-5.033584e-29 7.787685e-27 -1.198266e-02)	(2.351255e-29 -1.782058e-27 -4.048178e-06)
60            	(-2.681580e-29 6.004764e-27 -1.233899e-02)	(-5.033237e-29 7.787236e-27 -1.233489e-02)	(2.351657e-29 -1.782472e-27 -4.101567e-06)
61            	(-2.681075e-29 6.004263e-27 -1.269618e-02)	(-5.033436e-29 7.787472e-27 -1.269201e-02)	(2.352361e-29 -1.783209e-27 -4.167004e-06)
62            	(-2.681046e-29 6.004347e-27 -1.305581e-02)	(-5.034005e-29 7.788182e-27 -1.305156e-02)	(2.352959e-29 -1.783835e-27 -4.243680e-06)
63            	(-2.681263e-29 6.004781e-27 -1.341930e-02)	(-5.035076e-29 7.789516e-27 -1.341497e-02)	(2.353813e-29 -1.784735e-27 -4.330719e-06)
64            	(-2.681917e-29 6.005742e-27 -1.378389e-02)	(-5.036489e-29 7.791277e-27 -1.377946e-02)	(2.354572e-29 -1.785535e-27 -4.426597e-06)
65            	(-2.682804e-29 6.007021e-27 -1.415227e-02)	(-5.038339e-29 7.793575e-27 -1.414773e-02)	(2.355535e-29 -1.786554e-27 -4.530487e-06)
66            	(-2.684080e-29 6.008759e-27 -1.451980e-02)	(-5.040451e-29 7.796197e-27 -1.451516e-02)	(2.356371e-29 -1.787437e-27 -4.641678e-06)
67            	(-2.685537e-29 6.010737e-27 -1.488787e-02)	(-5.042896e-29 7.799221e-27 -1.488311e-02)	(2.357359e-29 -1.788484e-27 -4.759585e-06)
68            	(-2.687293e-29 6.013060e-27 -1.525513e-02)	(-5.045531e-29 7.802475e-27 -1.525025e-02)	(2.358238e-29 -1.789415e-27 -4.883092e-06)
69            	(-2.689180e-29 6.015550e-27 -1.562137e-02)	(-5.048401e-29 7.806009e-27 -1.561636e-02)	(2.359221e-29 -1.790458e-27 -5.011434e-06)
70            	(-2.691285e-29 6.018284e-27 -1.598745e-02)	(-5.051386e-29 7.809675e-27 -1.598230e-02)	(2.360100e-29 -1.791391e-27 -5.143565e-06)
71            	(-2.693517e-29 6.021147e-27 -1.636096e-02)	(-5.054361e-29 7.813321e-27 -1.635568e-02)	(2.360843e-29 -1.792174e-27 -5.277920e-06)
72            	(-2.695724e-29 6.023979e-27 -1.672552e-02)	(-5.057379e-29 7.817011e-27 -1.672011e-02)	(2.361655e-29 -1.793032e-27 -5.417602e-06)
73            	(-2.697949e-29 6.026833e-27 -1.708807e-02)	(-5.060485e-29 7.820798e-27 -1.708251e-02)	(2.362536e-29 -1.793965e-27 -5.558988e-06)
74            	(-2.700280e-29 6.029786e-27 -1.744820e-02)	(-5.063557e-29 7.824535e-27 -1.744250e-02)	(2.363277e-29 -1.794749e-27 -5.703077e-06)
75            	(-2.702578e-29 6.032693e-27 -1.780595e-02)	(-5.066615e-29 7.828247e-27 -1.780010e-02)	(2.364037e-29 -1.795554e-27 -5.849068e-06)
76            	(-2.704880e-29 6.035585e-27 -1.816773e-02)	(-5.069615e-29 7.831878e-27 -1.816174e-02)	(2.364734e-29 -1.796293e-27 -5.996756e-06)
77            	(-2.707134e-29 6.038409e-27 -1.852949e-02)	(-5.072568e-29 7.835442e-27 -1.852335e-02)	(2.365433e-29 -1.797033e-27 -6.145938e-06)
78            	(-2.709370e-29 6.041190e-27 -1.889010e-02)	(-5.075419e-29 7.838874e-27 -1.888380e-02)	(2.366049e-29 -1.797685e-27 -6.296892e-06)
79            	(-2.711519e-29 6.043859e-27 -1.924930e-02)	(-5.078196e-29 7.842209e-27 -1.924285e-02)	(2.366677e-29 -1.798351e-27 -6.449389e-06)
80            	(-2.713626e-29 6.046458e-27 -1.960701e-02)	(-5.080859e-29 7.845398e-27 -1.960041e-02)	(2.367233e-29 -1.798940e-27 -6.603036e-06)
81            	(-2.715638e-29 6.048936e-27 -1.996328e-02)	(-5.083429e-29 7.848466e-27 -1.995652e-02)	(2.367791e-29 -1.799531e-27 -6.757178e-06)
82            	(-2.717590e-29 6.051325e-27 -2.031819e-02)	(-5.085873e-29 7.851377e-27 -2.031128e-02)	(2.368282e-29 -1.800051e-27 -6.910864e-06)
83            	(-2.719440e-29 6.053586e-27 -2.067160e-02)	(-5.088210e-29 7.854153e-27 -2.066454e-02)	(2.368769e-29 -1.800567e-27 -7.063017e-06)
84            	(-2.721217e-29 6.055745e-27 -2.102442e-02)	(-5.090418e-29 7.856768e-27 -2.101721e-02)	(2.369201e-29 -1.801023e-27 -7.212958e-06)
85            	(-2.722888e-29 6.057774e-27 -2.137660e-02)	(-5.092519e-29 7.859251e-27 -2.136924e-02)	(2.369631e-29 -1.801478e-27 -7.360548e-06)
86            	(-2.724483e-29 6.059701e-27 -2.172792e-02)	(-5.094499e-29 7.861585e-27 -2.172041e-02)	(2.370016e-29 -1.801884e-27 -7.506711e-06)
87            	(-2.725981e-29 6.061508e-27 -2.207829e-02)	(-5.096375e-29 7.863792e-27 -2.207064e-02)	(2.370395e-29 -1.802284e-27 -7.651585e-06)
88            	(-2.727403e-29 6.063219e-27 -2.242766e-02)	(-5.098138e-29 7.865860e-27 -2.241986e-02)	(2.370735e-29 -1.802641e-27 -7.794675e-06)
89            	(-2.728733e-29 6.064817e-27 -2.277591e-02)	(-5.099807e-29 7.867815e-27 -2.276797e-02)	(2.371074e-29 -1.802998e-27 -7.935224e-06)
90            	(-2.729995e-29 6.066330e-27 -2.312286e-02)	(-5.101374e-29 7.869647e-27 -2.311479e-02)	(2.371379e-29 -1.803318e-27 -8.072299e-06)
91            	(-2.731174e-29 6.067744e-27 -2.346818e-02)	(-5.102859e-29 7.871381e-27 -2.345997e-02)	(2.371684e-29 -1.803637e-27 -8.205068e-06)
92            	(-2.732293e-29 6.069082e-27 -2.381162e-02)	(-5.104255e-29 7.873010e-27 -2.380328e-02)	(2.371963e-29 -1.803928e-27 -8.332860e-06)
93            	(-2.733339e-29 6.070337e-27 -2.415291e-02)	(-5.105584e-29 7.874559e-27 -2.414445e-02)	(2.372244e-29 -1.804221e-27 -8.455217e-06)
94            	(-2.734335e-29 6.071531e-27 -2.449174e-02)	(-5.106841e-29 7.876025e-27 -2.448316e-02)	(2.372506e-29 -1.804493e-27 -8.571845e-06)
95            	(-2.735272e-29 6.072657e-27 -2.482832e-02)	(-5.108050e-29 7.877434e-27 -2.481964e-02)	(2.372778e-29 -1.804776e-27 -8.683088e-06)
96            	(-2.736171e-29 6.073741e-27 -2.516210e-02)	(-5.109208e-29 7.878786e-27 -2.515331e-02)	(2.373037e-29 -1.805045e-27 -8.789672e-06)
97            	(-2.737029e-29 6.074779e-27 -2.549275e-02)	(-5.110333e-29 7.880100e-27 -2.548386e-02)	(2.373303e-29 -1.805322e-27 -8.892341e-06)
98            	(-2.737862e-29 6.075788e-27 -2.581984e-02)	(-5.111424e-29 7.881378e-27 -2.581085e-02)	(2.373562e-29 -1.805590e-27 -8.991512e-06)
99            	(-2.738666e-29 6.076768e-27 -2.614361e-02)	(-5.112494e-29 7.882635e-27 -2.613452e-02)	(2.373828e-29 -1.805866e-27 -9.087493e-06)
100           	(-2.739456e-29 6.077733e-27 -2.646341e-02)	(-5.113544e-29 7.883869e-27 -2.645423e-02)	(2.374089e-29 -1.806136e-27 -9.180025e-06)
101           	(-2.740250e-29 6.078697e-27 -2.676662e-02)	(-5.114510e-29 7.885008e-27 -2.675735e-02)	(2.374261e-29 -1.806311e-27 -9.268574e-06)
102           	(-2.740901e-29 6.079530e-27 -2.710505e-02)	(-5.115656e-29 7.886363e-27 -2.709570e-02)	(2.374755e-29 -1.806834e-27 -9.351769e-06)
103           	(-2.741808e-29 6.080619e-27 -2.738836e-02)	(-5.116585e-29 7.887464e-27 -2.737893e-02)	(2.374776e-29 -1.806845e-27 -9.432255e-06)
104           	(-2.742425e-29 6.081418e-27 -2.771406e-02)	(-5.117719e-29 7.888812e-27 -2.770455e-02)	(2.375294e-29 -1.807394e-27 -9.506678e-06)
105           	(-2.743322e-29 6.082503e-27 -2.799040e-02)	(-5.118647e-29 7.889917e-27 -2.798082e-02)	(2.375324e-29 -1.807414e-27 -9.576653e-06)
106           	(-2.743939e-29 6.083308e-27 -2.830636e-02)	(-5.119781e-29 7.891271e-27 -2.829672e-02)	(2.375842e-29 -1.807963e-27 -9.641407e-06)
107           	(-2.744836e-29 6.084397e-27 -2.857483e-02)	(-5.120717e-29 7.892391e-27 -2.856512e-02)	(2.375881e-29 -1.807994e-27 -9.702130e-06)
108           	(-2.745460e-29 6.085215e-27 -2.888057e-02)	(-5.121863e-29 7.893763e-27 -2.887081e-02)	(2.376403e-29 -1.808547e-27 -9.757987e-06)
109           	(-2.746365e-29 6.086319e-27 -2.914113e-02)	(-5.122815e-29 7.894906e-27 -2.913132e-02)	(2.376450e-29 -1.808587e-27 -9.810185e-06)
110           	(-2.747028e-29 6.087175e-27 -2.942673e-02)	(-5.123897e-29 7.896204e-27 -2.941687e-02)	(2.376869e-29 -1.809029e-27 -9.857916e-06)
111           	(-2.747829e-29 6.088181e-27 -2.970039e-02)	(-5.124971e-29 7.897495e-27 -2.969049e-02)	(2.377141e-29 -1.809314e-27 -9.901592e-06)
112           	(-2.748625e-29 6.089182e-27 -2.996713e-02)	(-5.126040e-29 7.898781e-27 -2.995718e-02)	(2.377415e-29 -1.809599e-27 -9.942896e-06)
113           	(-2.749416e-29 6.090178e-27 -3.022908e-02)	(-5.127110e-29 7.900069e-27 -3.021910e-02)	(2.377694e-29 -1.809891e-27 -9.980622e-06)
114           	(-2.750211e-29 6.091178e-27 -3.048654e-02)	(-5.128173e-29 7.901350e-27 -3.047652e-02)	(2.377963e-29 -1.810172e-27 -1.001522e-05)
115           	(-2.751001e-29 6.092172e-27 -3.073951e-02)	(-5.129231e-29 7.902624e-27 -3.072946e-02)	(2.378230e-29 -1.810452e-27 -1.004690e-05)
116           	(-2.751788e-29 6.093161e-27 -3.098774e-02)	(-5.130279e-29 7.903886e-27 -3.097766e-02)	(2.378491e-29 -1.810725e-27 -1.007588e-05)
117           	(-2.752568e-29 6.094141e-27 -3.123089e-02)	(-5.131316e-29 7.905136e-27 -3.122079e-02)	(2.378748e-29 -1.810994e-27 -1.010236e-05)
118           	(-2.753343e-29 6.095113e-27 -3.146895e-02)	(-5.132341e-29 7.906369e-27 -3.145882e-02)	(2.378998e-29 -1.811256e-27 -1.012647e-05)
119           	(-2.754108e-29 6.096072e-27 -3.170201e-02)	(-5.133350e-29 7.907584e-27 -3.169186e-02)	(2.379242e-29 -1.811512e-27 -1.014836e-05)
120           	(-2.754863e-29 6.097017e-27 -3.193019e-02)	(-5.134340e-29 7.908775e-27 -3.192003e-02)	(2.379477e-29 -1.811758e-27 -1.016823e-05)
121           	(-2.755605e-29 6.097944e-27 -3.215370e-02)	(-5.135309e-29 7.909940e-27 -3.214352e-02)	(2.379704e-29 -1.811996e-27 -1.018625e-05)
122           	(-2.756333e-29 6.098852e-27 -3.237304e-02)	(-5.136254e-29 7.911077e-27 -3.236284e-02)	(2.379922e-29 -1.812225e-27 -1.020252e-05)
123           	(-2.757043e-29 6.099737e-27 -3.258826e-02)	(-5.137174e-29 7.912181e-27 -3.257804e-02)	(2.380131e-29 -1.812444e-27 -1.021715e-05)
124           	(-2.757735e-29 6.100598e-27 -3.279939e-02)	(-5.138065e-29 7.913250e-27 -3.278916e-02)	(2.380330e-29 -1.812653e-27 -1.023021e-05)
125           	(-2.758407e-29 6.101431e-27 -3.300639e-02)	(-5.138926e-29 7.914283e-27 -3.299615e-02)	(2.380519e-29 -1.812851e-27 -1.024175e-05)
126           	(-2.759056e-29 6.102236e-27 -3.320914e-02)	(-5.139755e-29 7.915276e-27 -3.319889e-02)	(2.380699e-29 -1.813040e-27 -1.025185e-05)
127           	(-2.759682e-29 6.103011e-27 -3.340734e-02)	(-5.140551e-29 7.916230e-27 -3.339708e-02)	(2.380869e-29 -1.813219e-27 -1.026060e-05)
128           	(-2.760284e-29 6.103755e-27 -3.360119e-02)	(-5.141314e-29 7.917142e-27 -3.359093e-02)	(2.381030e-29 -1.813387e-27 -1.026808e-05)
129           	(-2.760861e-29 6.104467e-27 -3.379077e-02)	(-5.142043e-29 7.918013e-27 -3.378049e-02)	(2.381182e-29 -1.813546e-27 -1.027432e-05)
130           	(-2.761413e-29 6.105146e-27 -3.397619e-02)	(-5.142738e-29 7.918843e-27 -3.396591e-02)	(2.381326e-29 -1.813697e-27 -1.027939e-05)
131           	(-2.761939e-29 6.105793e-27 -3.415741e-02)	(-5.143400e-29 7.919632e-27 -3.414713e-02)	(2.381461e-29 -1.813839e-27 -1.028335e-05)
132           	(-2.762440e-29 6.106409e-27 -3.433439e-02)	(-5.144028e-29 7.920380e-27 -3.432411e-02)	(2.381588e-29 -1.813971e-27 -1.028628e-05)
133           	(-2.762916e-29 6.106992e-27 -3.450709e-02)	(-5.144623e-29 7.921088e-27 -3.449680e-02)	(2.381707e-29 -1.814095e-27 -1.028823e-05)
134           	(-2.763367e-29 6.107545e-27 -3.467566e-02)	(-5.145185e-29 7.921757e-27 -3.466538e-02)	(2.381819e-29 -1.814212e-27 -1.028928e-05)
135           	(-2.763779e-29 6.108056e-27 -3.486292e-02)	(-5.145761e-29 7.922440e-27 -3.485263e-02)	(2.381981e-29 -1.814384e-27 -1.028945e-05)
136           	(-2.764220e-29 6.108593e-27 -3.503258e-02)	(-5.146288e-29 7.923067e-27 -3.502229e-02)	(2.382068e-29 -1.814474e-27 -1.028845e-05)
137           	(-2.764623e-29 6.109084e-27 -3.519381e-02)	(-5.146776e-29 7.923646e-27 -3.518352e-02)	(2.382154e-29 -1.814562e-27 -1.028736e-05)
138           	(-2.764994e-29 6.109536e-27 -3.534980e-02)	(-5.147233e-29 7.924187e-27 -3.533952e-02)	(2.382240e-29 -1.814652e-27 -1.028531e-05)
139           	(-2.765340e-29 6.109958e-27 -3.550134e-02)	(-5.147662e-29 7.924695e-27 -3.549106e-02)	(2.382322e-29 -1.814737e-27 -1.028263e-05)
140           	(-2.765664e-29 6.110354e-27 -3.564869e-02)	(-5.148065e-29 7.925172e-27 -3.563841e-02)	(2.382400e-29 -1.814818e-27 -1.027940e-05)
141           	(-2.765969e-29 6.110726e-27 -3.579187e-02)	(-5.148444e-29 7.925622e-27 -3.578159e-02)	(2.382475e-29 -1.814896e-27 -1.027570e-05)
142           	(-2.766256e-29 6.111076e-27 -3.593091e-02)	(-5.148802e-29 7.926045e-27 -3.592064e-02)	(2.382546e-29 -1.814970e-27 -1.027161e-05)
143           	(-2.766526e-29 6.111405e-27 -3.606583e-02)	(-5.149140e-29 7.926445e-27 -3.605557e-02)	(2.382614e-29 -1.815040e-27 -1.026718e-05)
144           	(-2.766781e-29 6.111717e-27 -3.619674e-02)	(-5.149459e-29 7.926823e-27 -3.618648e-02)	(2.382678e-29 -1.815107e-27 -1.026247e-05)
145           	(-2.767022e-29 6.112011e-27 -3.632371e-02)	(-5.149761e-29 7.927181e-27 -3.631345e-02)	(2.382740e-29 -1.815171e-27 -1.025754e-05)
146           	(-2.767249e-29 6.112289e-27 -3.644684e-02)	(-5.150048e-29 7.927521e-27 -3.643658e-02)	(2.382799e-29 -1.815232e-27 -1.025242e-05)
147           	(-2.767465e-29 6.112554e-27 -3.656625e-02)	(-5.150320e-29 7.927844e-27 -3.655600e-02)	(2.382855e-29 -1.815290e-27 -1.024715e-05)
148           	(-2.767670e-29 6.112805e-27 -3.668206e-02)	(-5.150580e-29 7.928152e-27 -3.667182e-02)	(2.382911e-29 -1.815347e-27 -1.024174e-05)
149           	(-2.767864e-29 6.113044e-27 -3.679430e-02)	(-5.150831e-29 7.928451e-27 -3.678407e-02)	(2.382968e-29 -1.815407e-27 -1.023622e-05)
150           	(-2.768053e-29 6.113276e-27 -3.690301e-02)	(-5.151070e-29 7.928734e-27 -3.689278e-02)	(2.383017e-29 -1.815458e-27 -1.023066e-05)
151           	(-2.768231e-29 6.113496e-27 -3.700833e-02)	(-5.151299e-29 7.929006e-27 -3.699810e-02)	(2.383068e-29 -1.815510e-27 -1.022500e-05)
152           	(-2.768403e-29 6.113709e-27 -3.711045e-02)	(-5.151517e-29 7.929267e-27 -3.710023e-02)	(2.383114e-29 -1.815558e-27 -1.021934e-05)
153           	(-2.768566e-29 6.113910e-27 -3.720945e-02)	(-5.151732e-29 7.929523e-27 -3.719924e-02)	(2.383167e-29 -1.815613e-27 -1.021364e-05)
154           	(-2.768726e-29 6.114109e-27 -3.730543e-02)	(-5.151940e-29 7.929771e-27 -3.729522e-02)	(2.383214e-29 -1.815661e-27 -1.020807e-05)
155           	(-2.768882e-29 6.114302e-27 -3.739821e-02)	(-5.152140e-29 7.930010e-27 -3.738801e-02)	(2.383259e-29 -1.815708e-27 -1.020253e-05)
156           	(-2.769031e-29 6.114489e-27 -3.748789e-02)	(-5.152335e-29 7.930244e-27 -3.747769e-02)	(2.383304e-29 -1.815755e-27 -1.019707e-05)
157           	(-2.769177e-29 6.114670e-27 -3.757478e-02)	(-5.152524e-29 7.930470e-27 -3.756459e-02)	(2.383348e-29 -1.815800e-27 -1.019186e-05)
158           	(-2.769318e-29 6.114846e-27 -3.765900e-02)	(-5.152709e-29 7.930692e-27 -3.764881e-02)	(2.383391e-29 -1.815846e-27 -1.018673e-05)
159           	(-2.769456e-29 6.115018e-27 -3.774065e-02)	(-5.152890e-29 7.930908e-27 -3.773047e-02)	(2.383434e-29 -1.815890e-27 -1.018174e-05)
160           	(-2.769591e-29 6.115187e-27 -3.781994e-02)	(-5.153066e-29 7.931120e-27 -3.780976e-02)	(2.383475e-29 -1.815933e-27 -1.017686e-05)
161           	(-2.769723e-29 6.115352e-27 -3.789673e-02)	(-5.153238e-29 7.931327e-27 -3.788656e-02)	(2.383515e-29 -1.815975e-27 -1.017211e-05)
162           	(-2.769852e-29 6.115513e-27 -3.797129e-02)	(-5.153406e-29 7.931528e-27 -3.796113e-02)	(2.383554e-29 -1.816015e-27 -1.016749e-05)
163           	(-2.769977e-29 6.115669e-27 -3.804353e-02)	(-5.153569e-29 7.931724e-27 -3.803337e-02)	(2.383592e-29 -1.816055e-27 -1.016300e-05)
164           	(-2.770099e-29 6.115822e-27 -3.811376e-02)	(-5.153727e-29 7.931915e-27 -3.810360e-02)	(2.383628e-29 -1.816093e-27 -1.015866e-05)
165           	(-2.770219e-29 6.115971e-27 -3.818178e-02)	(-5.153882e-29 7.932100e-27 -3.817162e-02)	(2.383663e-29 -1.816129e-27 -1.015445e-05)
166           	(-2.770334e-29 6.116116e-27 -3.824791e-02)	(-5.154031e-29 7.932280e-27 -3.823776e-02)	(2.383697e-29 -1.816165e-27 -1.015041e-05)
167           	(-2.770447e-29 6.116256e-27 -3.831203e-02)	(-5.154176e-29 7.932454e-27 -3.830189e-02)	(2.383729e-29 -1.816198e-27 -1.014653e-05)
168           	(-2.770556e-29 6.116392e-27 -3.837443e-02)	(-5.154317e-29 7.932623e-27 -3.836428e-02)	(2.383761e-29 -1.816231e-27 -1.014281e-05)
169           	(-2.770659e-29 6.116521e-27 -3.843712e-02)	(-5.154461e-29 7.932796e-27 -3.842698e-02)	(2.383802e-29 -1.816275e-27 -1.013923e-05)
170           	(-2.770774e-29 6.116661e-27 -3.849229e-02)	(-5.154580e-29 7.932939e-27 -3.848216e-02)	(2.383805e-29 -1.816277e-27 -1.013560e-05)
171           	(-2.770856e-29 6.116767e-27 -3.855292e-02)	(-5.154717e-29 7.933103e-27 -3.854279e-02)	(2.383861e-29 -1.816336e-27 -1.013268e-05)
172           	(-2.770966e-29 6.116900e-27 -3.860570e-02)	(-5.154829e-29 7.933238e-27 -3.859557e-02)	(2.383864e-29 -1.816338e-27 -1.012909e-05)
173           	(-2.771047e-29 6.117002e-27 -3.866157e-02)	(-5.154950e-29 7.933383e-27 -3.865145e-02)	(2.383903e-29 -1.816381e-27 -1.012651e-05)
174           	(-2.771138e-29 6.117115e-27 -3.871525e-02)	(-5.155065e-29 7.933521e-27 -3.870512e-02)	(2.383927e-29 -1.816406e-27 -1.012341e-05)
175           	(-2.771226e-29 6.117224e-27 -3.876698e-02)	(-5.155174e-29 7.933651e-27 -3.875686e-02)	(2.383948e-29 -1.816427e-27 -1.012060e-05)
176           	(-2.771308e-29 6.117325e-27 -3.881732e-02)	(-5.155277e-29 7.933774e-27 -3.880721e-02)	(2.383969e-29 -1.816449e-27 -1.011792e-05)
177           	(-2.771386e-29 6.117421e-27 -3.886648e-02)	(-5.155376e-29 7.933893e-27 -3.885636e-02)	(2.383990e-29 -1.816471e-27 -1.011537e-05)
178           	(-2.771459e-29 6.117512e-27 -3.891611e-02)	(-5.155477e-29 7.934013e-27 -3.890599e-02)	(2.384018e-29 -1.816501e-27 -1.011292e-05)
179           	(-2.771539e-29 6.117609e-27 -3.896021e-02)	(-5.155561e-29 7.934112e-27 -3.895010e-02)	(2.384022e-29 -1.816504e-27 -1.011041e-05)
180           	(-2.771598e-29 6.117683e-27 -3.900851e-02)	(-5.155655e-29 7.934225e-27 -3.899840e-02)	(2.384057e-29 -1.816542e-27 -1.010856e-05)
181           	(-2.771671e-29 6.117772e-27 -3.905252e-02)	(-5.155738e-29 7.934324e-27 -3.904242e-02)	(2.384067e-29 -1.816551e-27 -1.010619e-05)
182           	(-2.771734e-29 6.117849e-27 -3.909605e-02)	(-5.155818e-29 7.934419e-27 -3.908594e-02)	(2.384084e-29 -1.816570e-27 -1.010439e-05)
183           	(-2.771794e-29 6.117923e-27 -3.913888e-02)	(-5.155894e-29 7.934510e-27 -3.912877e-02)	(2.384101e-29 -1.816587e-27 -1.010257e-05)
184           	(-2.771853e-29 6.117994e-27 -3.917941e-02)	(-5.155964e-29 7.934592e-27 -3.916931e-02)	(2.384111e-29 -1.816598e-27 -1.010086e-05)
185           	(-2.771902e-29 6.118057e-27 -3.922289e-02)	(-5.156040e-29 7.934683e-27 -3.921279e-02)	(2.384138e-29 -1.816626e-27 -1.009943e-05)
186           	(-2.771963e-29 6.118129e-27 -3.926078e-02)	(-5.156101e-29 7.934756e-27 -3.925068e-02)	(2.384139e-29 -1.816627e-27 -1.009755e-05)
187           	(-2.772007e-29 6.118184e-27 -3.930043e-02)	(-5.156168e-29 7.934835e-27 -3.929033e-02)	(2.384161e-29 -1.816650e-27 -1.009644e-05)
188           	(-2.772056e-29 6.118245e-27 -3.934012e-02)	(-5.156234e-29 7.934913e-27 -3.933003e-02)	(2.384178e-29 -1.816668e-27 -1.009496e-05)
189           	(-2.772107e-29 6.118307e-27 -3.937630e-02)	(-5.156291e-29 7.934981e-27 -3.936621e-02)	(2.384184e-29 -1.816674e-27 -1.009335e-05)
190           	(-2.772151e-29 6.118360e-27 -3.941221e-02)	(-5.156346e-29 7.935046e-27 -3.940212e-02)	(2.384196e-29 -1.816686e-27 -1.009222e-05)
191           	(-2.772191e-29 6.118410e-27 -3.944780e-02)	(-5.156402e-29 7.935112e-27 -3.943771e-02)	(2.384211e-29 -1.816702e-27 -1.009103e-05)
192           	(-2.772233e-29 6.118461e-27 -3.948269e-02)	(-5.156456e-29 7.935177e-27 -3.947260e-02)	(2.384223e-29 -1.816715e-27 -1.008992e-05)
193           	(-2.772273e-29 6.118511e-27 -3.951675e-02)	(-5.156508e-29 7.935238e-27 -3.950666e-02)	(2.384235e-29 -1.816727e-27 -1.008888e-05)
194           	(-2.772312e-29 6.118559e-27 -3.955002e-02)	(-5.156558e-29 7.935298e-27 -3.953994e-02)	(2.384246e-29 -1.816739e-27 -1.008790e-05)
195           	(-2.772350e-29 6.118605e-27 -3.958257e-02)	(-5.156607e-29 7.935356e-27 -3.957248e-02)	(2.384257e-29 -1.816750e-27 -1.008697e-05)
196           	(-2.772386e-29 6.118650e-27 -3.961442e-02)	(-5.156654e-29 7.935412e-27 -3.960433e-02)	(2.384268e-29 -1.816762e-27 -1.008609e-05)
197           	(-2.772421e-29 6.118694e-27 -3.964559e-02)	(-5.156700e-29 7.935467e-27 -3.963551e-02)	(2.384279e-29 -1.816774e-27 -1.008525e-05)
198           	(-2.772455e-29 6.118736e-27 -3.967609e-02)	(-5.156746e-29 7.935521e-27 -3.966600e-02)	(2.384290e-29 -1.816785e-27 -1.008446e-05)
199           	(-2.772490e-29 6.118779e-27 -3.970494e-02)	(-5.156788e-29 7.935572e-27 -3.969486e-02)	(2.384298e-29 -1.816793e-27 -1.008373e-05)
200           	(-2.772520e-29 6.118817e-27 -3.973483e-02)	(-5.156833e-29 7.935625e-27 -3.972475e-02)	(2.384313e-29 -1.816808e-27 -1.008324e-05)
201           	(-2.772554e-29 6.118858e-27 -3.976362e-02)	(-5.156877e-29 7.935677e-27 -3.975354e-02)	(2.384323e-29 -1.816819e-27 -1.008246e-05)
202           	(-2.772587e-29 6.118899e-27 -3.979145e-02)	(-5.156919e-29 7.935727e-27 -3.978137e-02)	(2.384332e-29 -1.816828e-27 -1.008180e-05)
203           	(-2.772618e-29 6.118938e-27 -3.981857e-02)	(-5.156960e-29 7.935776e-27 -3.980849e-02)	(2.384341e-29 -1.816838e-27 -1.008118e-05)
204           	(-2.772649e-29 6.118976e-27 -3.984510e-02)	(-5.157000e-29 7.935824e-27 -3.983502e-02)	(2.384351e-29 -1.816848e-27 -1.008059e-05)
205           	(-2.772678e-29 6.119013e-27 -3.987106e-02)	(-5.157039e-29 7.935872e-27 -3.986098e-02)	(2.384361e-29 -1.816858e-27 -1.008003e-05)
206           	(-2.772708e-29 6.119050e-27 -3.989645e-02)	(-5.157078e-29 7.935918e-27 -3.988637e-02)	(2.384370e-29 -1.816868e-27 -1.007949e-05)
207           	(-2.772737e-29 6.119086e-27 -3.992129e-02)	(-5.157117e-29 7.935964e-27 -3.991121e-02)	(2.384380e-29 -1.816878e-27 -1.007898e-05)