# Force       
# CofR        : (0.000000e+00 0.000000e+00 0.000000e+00)
#
# Time        	(total_x total_y total_z)	(pressure_x pressure_y pressure_z)	(viscous_x viscous_y viscous_z)
1             	(9.688621e-01 -9.436759e-02 -9.653313e-25)	(1.262480e-02 -9.456995e-02 -4.333807e-24)	(9.562373e-01 2.023574e-04 3.368476e-24)
2             	(2.995391e-01 -1.155228e-02 -3.735416e-24)	(4.232737e-03 -1.198356e-02 -1.579122e-24)	(2.953064e-01 4.312800e-04 -2.156294e-24)
3             	(1.605700e-01 -2.162979e-03 -1.424307e-24)	(1.018726e-03 -2.485012e-03 -4.063892e-25)	(1.595513e-01 3.220332e-04 -1.017918e-24)
4             	(1.131664e-01 -1.199766e-04 -3.599802e-25)	(2.406960e-04 -3.685890e-04 -7.983134e-26)	(1.129257e-01 2.486124e-04 -2.801488e-25)
5             	(8.979014e-02 -7.111836e-04 -6.546376e-26)	(2.323304e-04 -9.164048e-04 -7.492759e-26)	(8.955781e-02 2.052212e-04 9.463827e-27)
6             	(7.557976e-02 -1.072847e-03 -5.312118e-26)	(3.331037e-04 -1.250705e-03 -1.384127e-25)	(7.524665e-02 1.778588e-04 8.529153e-26)
7             	(6.585189e-02 -1.688874e-03 -9.989422e-26)	(3.881870e-04 -1.848708e-03 -1.875325e-25)	(6.546371e-02 1.598335e-04 8.763829e-26)
8             	(5.863229e-02 -1.515386e-03 -1.420665e-25)	(3.916627e-04 -1.662276e-03 -2.083461e-25)	(5.824063e-02 1.468905e-04 6.627956e-26)
9             	(5.304254e-02 -1.036292e-03 -1.645777e-25)	(3.789615e-04 -1.174948e-03 -2.127364e-25)	(5.266358e-02 1.386557e-04 4.815871e-26)
10            	(4.855079e-02 -1.360962e-04 -1.711019e-25)	(3.593252e-04 -2.705656e-04 -2.080861e-25)	(4.819147e-02 1.344694e-04 3.698427e-26)
11            	(4.486253e-02 4.992503e-04 -1.687334e-25)	(3.489492e-04 3.662548e-04 -2.034785e-25)	(4.451358e-02 1.329956e-04 3.474505e-26)
12            	(4.176692e-02 1.010177e-03 -1.672612e-25)	(3.430121e-04 8.767012e-04 -1.995780e-25)	(4.142390e-02 1.334763e-04 3.231682e-26)
13            	(3.912579e-02 1.353216e-03 -1.642631e-25)	(3.404234e-04 1.218508e-03 -1.964229e-25)	(3.878537e-02 1.347082e-04 3.215978e-26)
14            	(3.684051e-02 1.660122e-03 -1.596788e-25)	(3.396769e-04 1.523761e-03 -1.938177e-25)	(3.650083e-02 1.363611e-04 3.413885e-26)
15            	(3.483956e-02 1.940043e-03 -1.552499e-25)	(3.397817e-04 1.801899e-03 -1.915173e-25)	(3.449978e-02 1.381435e-04 3.626735e-26)
16            	(3.306709e-02 2.209962e-03 -1.521127e-25)	(3.379667e-04 2.070217e-03 -1.886519e-25)	(3.272913e-02 1.397447e-04 3.653918e-26)
17            	(3.148646e-02 2.410839e-03 -1.486148e-25)	(3.371835e-04 2.269812e-03 -1.863330e-25)	(3.114928e-02 1.410267e-04 3.771814e-26)
18            	(3.006628e-02 2.497101e-03 -1.457539e-25)	(3.374403e-04 2.355061e-03 -1.847715e-25)	(2.972884e-02 1.420405e-04 3.901755e-26)
19            	(2.877991e-02 2.547863e-03 -1.438394e-25)	(3.372481e-04 2.405101e-03 -1.834518e-25)	(2.844266e-02 1.427619e-04 3.961245e-26)
20            	(2.760961e-02 2.482775e-03 -1.422864e-25)	(3.374148e-04 2.339561e-03 -1.826022e-25)	(2.727219e-02 1.432139e-04 4.031580e-26)
21            	(2.653999e-02 2.355788e-03 -1.412640e-25)	(3.383140e-04 2.212319e-03 -1.822821e-25)	(2.620168e-02 1.434694e-04 4.101813e-26)
22            	(2.555767e-02 2.122821e-03 -1.408104e-25)	(3.396536e-04 1.979211e-03 -1.823299e-25)	(2.521802e-02 1.436106e-04 4.151952e-26)
23            	(2.465223e-02 1.794596e-03 -1.407154e-25)	(3.418909e-04 1.650940e-03 -1.828164e-25)	(2.431034e-02 1.436559e-04 4.210094e-26)
24            	(2.381397e-02 1.475607e-03 -1.410650e-25)	(3.443098e-04 1.331942e-03 -1.834510e-25)	(2.346966e-02 1.436658e-04 4.238603e-26)
25            	(2.303562e-02 1.162243e-03 -1.415462e-25)	(3.471696e-04 1.018601e-03 -1.842742e-25)	(2.268845e-02 1.436421e-04 4.272800e-26)
26            	(2.231057e-02 8.104607e-04 -1.422075e-25)	(3.501158e-04 6.668606e-04 -1.851391e-25)	(2.196045e-02 1.436001e-04 4.293160e-26)
27            	(2.163371e-02 4.690047e-04 -1.428928e-25)	(3.532855e-04 3.254586e-04 -1.860757e-25)	(2.128042e-02 1.435461e-04 4.318289e-26)
28            	(2.100021e-02 1.227109e-04 -1.436489e-25)	(3.563388e-04 -2.078031e-05 -1.869626e-25)	(2.064387e-02 1.434912e-04 4.331372e-26)
29            	(2.040657e-02 -2.294998e-04 -1.443409e-25)	(3.595747e-04 -3.729284e-04 -1.878934e-25)	(2.004700e-02 1.434286e-04 4.355248e-26)
30            	(1.984911e-02 -5.840788e-04 -1.450806e-25)	(3.626331e-04 -7.274500e-04 -1.887514e-25)	(1.948648e-02 1.433713e-04 4.367083e-26)
31            	(1.932510e-02 -9.127394e-04 -1.457464e-25)	(3.656877e-04 -1.056048e-03 -1.895972e-25)	(1.895942e-02 1.433088e-04 4.385079e-26)
32            	(1.883179e-02 -1.242290e-03 -1.464110e-25)	(3.685086e-04 -1.385540e-03 -1.903593e-25)	(1.846329e-02 1.432498e-04 4.394821e-26)
33            	(1.836718e-02 -1.559854e-03 -1.469956e-25)	(3.712798e-04 -1.703039e-03 -1.911023e-25)	(1.799590e-02 1.431851e-04 4.410678e-26)
34            	(1.792912e-02 -1.865531e-03 -1.475764e-25)	(3.737680e-04 -2.008653e-03 -1.917552e-25)	(1.755536e-02 1.431223e-04 4.417887e-26)
35            	(1.751611e-02 -2.155806e-03 -1.480756e-25)	(3.761341e-04 -2.298862e-03 -1.923740e-25)	(1.713998e-02 1.430557e-04 4.429839e-26)
36            	(1.712624e-02 -2.434719e-03 -1.485573e-25)	(3.782070e-04 -2.577710e-03 -1.929059e-25)	(1.674803e-02 1.429909e-04 4.434861e-26)
37            	(1.675825e-02 -2.691211e-03 -1.489643e-25)	(3.800992e-04 -2.834134e-03 -1.933901e-25)	(1.637815e-02 1.429233e-04 4.442581e-26)
38            	(1.641095e-02 -2.940775e-03 -1.493406e-25)	(3.817013e-04 -3.083634e-03 -1.937920e-25)	(1.602924e-02 1.428592e-04 4.445142e-26)
39            	(1.608359e-02 -3.176799e-03 -1.496462e-25)	(3.831249e-04 -3.319593e-03 -1.941485e-25)	(1.570046e-02 1.427934e-04 4.450224e-26)
40            	(1.577539e-02 -3.404560e-03 -1.499230e-25)	(3.842686e-04 -3.547291e-03 -1.944268e-25)	(1.539112e-02 1.427312e-04 4.450379e-26)
41            	(1.548587e-02 -3.600018e-03 -1.501353e-25)	(3.852004e-04 -3.742688e-03 -1.946492e-25)	(1.510067e-02 1.426695e-04 4.451393e-26)
42            	(1.521467e-02 -3.849633e-03 -1.503011e-25)	(3.859850e-04 -3.992242e-03 -1.948343e-25)	(1.482868e-02 1.426091e-04 4.453315e-26)
43            	(1.496148e-02 -4.030692e-03 -1.504439e-25)	(3.865277e-04 -4.173248e-03 -1.949527e-25)	(1.457496e-02 1.425562e-04 4.450878e-26)
44            	(1.472635e-02 -4.263341e-03 -1.505315e-25)	(3.869015e-04 -4.405844e-03 -1.950262e-25)	(1.433945e-02 1.425023e-04 4.449472e-26)
45            	(1.450938e-02 -4.459692e-03 -1.505841e-25)	(3.871197e-04 -4.602146e-03 -1.950585e-25)	(1.412226e-02 1.424544e-04 4.447436e-26)
46            	(1.431074e-02 -4.660145e-03 -1.506053e-25)	(3.871903e-04 -4.802554e-03 -1.950508e-25)	(1.392355e-02 1.424086e-04 4.444548e-26)
47            	(1.413069e-02 -4.869634e-03 -1.505924e-25)	(3.871803e-04 -5.012000e-03 -1.950240e-25)	(1.374351e-02 1.423661e-04 4.443160e-26)
48            	(1.396942e-02 -5.089125e-03 -1.505675e-25)	(3.870581e-04 -5.231453e-03 -1.949670e-25)	(1.358236e-02 1.423282e-04 4.439950e-26)
49            	(1.382725e-02 -5.316088e-03 -1.505165e-25)	(3.868856e-04 -5.458382e-03 -1.948990e-25)	(1.344036e-02 1.422939e-04 4.438250e-26)
50            	(1.370441e-02 -5.548091e-03 -1.504591e-25)	(3.866436e-04 -5.690354e-03 -1.948129e-25)	(1.331777e-02 1.422634e-04 4.435382e-26)
51            	(1.360114e-02 -5.789450e-03 -1.503853e-25)	(3.863885e-04 -5.931686e-03 -1.947262e-25)	(1.321475e-02 1.422359e-04 4.434087e-26)
52            	(1.351754e-02 -6.040702e-03 -1.503130e-25)	(3.861038e-04 -6.182914e-03 -1.946328e-25)	(1.313144e-02 1.422119e-04 4.431974e-26)
53            	(1.345380e-02 -6.304283e-03 -1.502340e-25)	(3.858322e-04 -6.446473e-03 -1.945459e-25)	(1.306796e-02 1.421908e-04 4.431191e-26)
54            	(1.341002e-02 -6.579260e-03 -1.501618e-25)	(3.855586e-04 -6.721433e-03 -1.944601e-25)	(1.302446e-02 1.421730e-04 4.429829e-26)
55            	(1.338617e-02 -6.866306e-03 -1.500892e-25)	(3.853187e-04 -7.008464e-03 -1.943864e-25)	(1.300086e-02 1.421576e-04 4.429725e-26)
56            	(1.338202e-02 -7.168519e-03 -1.500277e-25)	(3.850971e-04 -7.310664e-03 -1.943194e-25)	(1.299693e-02 1.421449e-04 4.429176e-26)
57            	(1.339731e-02 -7.482226e-03 -1.499702e-25)	(3.849233e-04 -7.624360e-03 -1.942682e-25)	(1.301239e-02 1.421344e-04 4.429797e-26)
58            	(1.343158e-02 -7.807304e-03 -1.499267e-25)	(3.847817e-04 -7.949430e-03 -1.942275e-25)	(1.304680e-02 1.421260e-04 4.430079e-26)
59            	(1.348407e-02 -8.140891e-03 -1.498905e-25)	(3.846941e-04 -8.283010e-03 -1.942039e-25)	(1.309937e-02 1.421192e-04 4.431340e-26)
60            	(1.355374e-02 -8.486686e-03 -1.498689e-25)	(3.846462e-04 -8.628800e-03 -1.941926e-25)	(1.316909e-02 1.421139e-04 4.432374e-26)
61            	(1.363964e-02 -8.841522e-03 -1.498564e-25)	(3.846535e-04 -8.983631e-03 -1.941985e-25)	(1.325498e-02 1.421098e-04 4.434214e-26)
62            	(1.374069e-02 -9.202879e-03 -1.498585e-25)	(3.846999e-04 -9.344986e-03 -1.942162e-25)	(1.335599e-02 1.421068e-04 4.435775e-26)
63            	(1.385556e-02 -9.571641e-03 -1.498693e-25)	(3.847973e-04 -9.713745e-03 -1.942495e-25)	(1.347077e-02 1.421046e-04 4.438022e-26)
64            	(1.398263e-02 -9.945445e-03 -1.498933e-25)	(3.849306e-04 -1.008755e-02 -1.942935e-25)	(1.359770e-02 1.421033e-04 4.440018e-26)
65            	(1.412048e-02 -1.032550e-02 -1.499252e-25)	(3.851085e-04 -1.046760e-02 -1.943508e-25)	(1.373538e-02 1.421025e-04 4.442560e-26)
66            	(1.426812e-02 -1.070734e-02 -1.499686e-25)	(3.853144e-04 -1.084944e-02 -1.944163e-25)	(1.388280e-02 1.421021e-04 4.444765e-26)
67            	(1.442460e-02 -1.109164e-02 -1.500180e-25)	(3.855543e-04 -1.123374e-02 -1.944918e-25)	(1.403905e-02 1.421017e-04 4.447378e-26)
68            	(1.458880e-02 -1.147755e-02 -1.500760e-25)	(3.858145e-04 -1.161965e-02 -1.945730e-25)	(1.420299e-02 1.421016e-04 4.449702e-26)
69            	(1.475939e-02 -1.186425e-02 -1.501381e-25)	(3.860989e-04 -1.200636e-02 -1.946612e-25)	(1.437330e-02 1.421012e-04 4.452305e-26)
70            	(1.493518e-02 -1.225228e-02 -1.502064e-25)	(3.863957e-04 -1.239438e-02 -1.947527e-25)	(1.454879e-02 1.421008e-04 4.454633e-26)
71            	(1.511546e-02 -1.264510e-02 -1.502778e-25)	(3.866919e-04 -1.278720e-02 -1.948437e-25)	(1.472877e-02 1.421027e-04 4.456587e-26)
72            	(1.529992e-02 -1.303231e-02 -1.503485e-25)	(3.869927e-04 -1.317441e-02 -1.949358e-25)	(1.491293e-02 1.421000e-04 4.458728e-26)
73            	(1.548823e-02 -1.341887e-02 -1.504198e-25)	(3.873020e-04 -1.356097e-02 -1.950304e-25)	(1.510093e-02 1.420987e-04 4.461057e-26)
74            	(1.567986e-02 -1.380398e-02 -1.504935e-25)	(3.876083e-04 -1.394608e-02 -1.951236e-25)	(1.529226e-02 1.420974e-04 4.463014e-26)
75            	(1.587404e-02 -1.418671e-02 -1.505660e-25)	(3.879130e-04 -1.432881e-02 -1.952163e-25)	(1.548612e-02 1.420959e-04 4.465024e-26)
76            	(1.607056e-02 -1.457300e-02 -1.506382e-25)	(3.882118e-04 -1.471509e-02 -1.953069e-25)	(1.568235e-02 1.420942e-04 4.466866e-26)
77            	(1.626922e-02 -1.495879e-02 -1.507087e-25)	(3.885055e-04 -1.510088e-02 -1.953959e-25)	(1.588071e-02 1.420922e-04 4.468714e-26)
78            	(1.646995e-02 -1.534323e-02 -1.507781e-25)	(3.887890e-04 -1.548532e-02 -1.954816e-25)	(1.608116e-02 1.420898e-04 4.470341e-26)
79            	(1.667259e-02 -1.572610e-02 -1.508448e-25)	(3.890646e-04 -1.586819e-02 -1.955648e-25)	(1.628353e-02 1.420871e-04 4.472003e-26)
80            	(1.687671e-02 -1.610724e-02 -1.509096e-25)	(3.893286e-04 -1.624933e-02 -1.956444e-25)	(1.648738e-02 1.420842e-04 4.473473e-26)
81            	(1.708145e-02 -1.648617e-02 -1.509715e-25)	(3.895827e-04 -1.662825e-02 -1.957210e-25)	(1.669187e-02 1.420810e-04 4.474948e-26)
82            	(1.728562e-02 -1.686277e-02 -1.510312e-25)	(3.898239e-04 -1.700485e-02 -1.957936e-25)	(1.689580e-02 1.420778e-04 4.476247e-26)
83            	(1.748783e-02 -1.723662e-02 -1.510876e-25)	(3.900540e-04 -1.737869e-02 -1.958629e-25)	(1.709778e-02 1.420746e-04 4.477533e-26)
84            	(1.768723e-02 -1.760860e-02 -1.511415e-25)	(3.902708e-04 -1.775067e-02 -1.959282e-25)	(1.729696e-02 1.420714e-04 4.478673e-26)
85            	(1.788394e-02 -1.797867e-02 -1.511921e-25)	(3.904765e-04 -1.812074e-02 -1.959902e-25)	(1.749346e-02 1.420682e-04 4.479807e-26)
86            	(1.807856e-02 -1.834692e-02 -1.512402e-25)	(3.906697e-04 -1.848898e-02 -1.960484e-25)	(1.768789e-02 1.420650e-04 4.480820e-26)
87            	(1.827136e-02 -1.871290e-02 -1.512853e-25)	(3.908521e-04 -1.885497e-02 -1.961035e-25)	(1.788051e-02 1.420616e-04 4.481818e-26)
88            	(1.846186e-02 -1.907652e-02 -1.513280e-25)	(3.910228e-04 -1.921858e-02 -1.961551e-25)	(1.807084e-02 1.420583e-04 4.482711e-26)
89            	(1.864903e-02 -1.943751e-02 -1.513679e-25)	(3.911837e-04 -1.957957e-02 -1.962039e-25)	(1.825784e-02 1.420551e-04 4.483600e-26)
90            	(1.883162e-02 -1.979571e-02 -1.514057e-25)	(3.913342e-04 -1.993776e-02 -1.962496e-25)	(1.844028e-02 1.420521e-04 4.484398e-26)
91            	(1.900850e-02 -2.015073e-02 -1.514409e-25)	(3.914760e-04 -2.029278e-02 -1.962929e-25)	(1.861702e-02 1.420493e-04 4.485195e-26)
92            	(1.917879e-02 -2.050239e-02 -1.514744e-25)	(3.916089e-04 -2.064444e-02 -1.963336e-25)	(1.878718e-02 1.420467e-04 4.485920e-26)
93            	(1.934188e-02 -2.085043e-02 -1.515057e-25)	(3.917347e-04 -2.099248e-02 -1.963722e-25)	(1.895015e-02 1.420443e-04 4.486653e-26)
94            	(1.949742e-02 -2.119462e-02 -1.515355e-25)	(3.918533e-04 -2.133666e-02 -1.964088e-25)	(1.910556e-02 1.420422e-04 4.487332e-26)
95            	(1.964585e-02 -2.153540e-02 -1.515636e-25)	(3.919667e-04 -2.167744e-02 -1.964439e-25)	(1.925389e-02 1.420403e-04 4.488037e-26)
96            	(1.978838e-02 -2.187246e-02 -1.515906e-25)	(3.920751e-04 -2.201450e-02 -1.964777e-25)	(1.939630e-02 1.420386e-04 4.488707e-26)
97            	(1.992598e-02 -2.220547e-02 -1.516165e-25)	(3.921800e-04 -2.234751e-02 -1.965105e-25)	(1.953380e-02 1.420371e-04 4.489398e-26)
98            	(2.005909e-02 -2.253414e-02 -1.516417e-25)	(3.922815e-04 -2.267617e-02 -1.965424e-25)	(1.966681e-02 1.420357e-04 4.490067e-26)
99            	(2.018762e-02 -2.285853e-02 -1.516662e-25)	(3.923810e-04 -2.300056e-02 -1.965737e-25)	(1.979524e-02 1.420345e-04 4.490757e-26)
100           	(2.031115e-02 -2.317822e-02 -1.516902e-25)	(3.924784e-04 -2.332025e-02 -1.966045e-25)	(1.991868e-02 1.420333e-04 4.491430e-26)
101           	(2.042916e-02 -2.347773e-02 -1.517143e-25)	(3.925680e-04 -2.361976e-02 -1.966330e-25)	(2.003659e-02 1.420323e-04 4.491867e-26)
102           	(2.054121e-02 -2.381664e-02 -1.517351e-25)	(3.926745e-04 -2.395867e-02 -1.966668e-25)	(2.014854e-02 1.420306e-04 4.493170e-26)
103           	(2.064700e-02 -2.409687e-02 -1.517622e-25)	(3.927607e-04 -2.423890e-02 -1.966942e-25)	(2.025424e-02 1.420311e-04 4.493199e-26)
104           	(2.074642e-02 -2.442100e-02 -1.517822e-25)	(3.928665e-04 -2.456302e-02 -1.967279e-25)	(2.035356e-02 1.420294e-04 4.494568e-26)
105           	(2.083946e-02 -2.469250e-02 -1.518093e-25)	(3.929529e-04 -2.483453e-02 -1.967554e-25)	(2.044651e-02 1.420304e-04 4.494619e-26)
106           	(2.092626e-02 -2.500563e-02 -1.518294e-25)	(3.930590e-04 -2.514766e-02 -1.967892e-25)	(2.053320e-02 1.420290e-04 4.495989e-26)
107           	(2.100699e-02 -2.526833e-02 -1.518565e-25)	(3.931466e-04 -2.541036e-02 -1.968172e-25)	(2.061384e-02 1.420302e-04 4.496065e-26)
108           	(2.108193e-02 -2.557027e-02 -1.518770e-25)	(3.932544e-04 -2.571230e-02 -1.968514e-25)	(2.068867e-02 1.420290e-04 4.497447e-26)
109           	(2.115133e-02 -2.582423e-02 -1.519045e-25)	(3.933440e-04 -2.596626e-02 -1.968799e-25)	(2.075799e-02 1.420304e-04 4.497544e-26)
110           	(2.121553e-02 -2.610255e-02 -1.519258e-25)	(3.934461e-04 -2.624458e-02 -1.969123e-25)	(2.082209e-02 1.420293e-04 4.498650e-26)
111           	(2.127482e-02 -2.637036e-02 -1.519510e-25)	(3.935478e-04 -2.651239e-02 -1.969446e-25)	(2.088128e-02 1.420299e-04 4.499359e-26)
112           	(2.132950e-02 -2.663076e-02 -1.519759e-25)	(3.936493e-04 -2.677279e-02 -1.969767e-25)	(2.093585e-02 1.420302e-04 4.500072e-26)
113           	(2.137986e-02 -2.688560e-02 -1.520008e-25)	(3.937511e-04 -2.702763e-02 -1.970088e-25)	(2.098611e-02 1.420305e-04 4.500800e-26)
114           	(2.142615e-02 -2.713532e-02 -1.520258e-25)	(3.938524e-04 -2.727735e-02 -1.970408e-25)	(2.103230e-02 1.420309e-04 4.501502e-26)
115           	(2.146865e-02 -2.738004e-02 -1.520506e-25)	(3.939534e-04 -2.752207e-02 -1.970726e-25)	(2.107469e-02 1.420312e-04 4.502200e-26)
116           	(2.150757e-02 -2.761965e-02 -1.520753e-25)	(3.940537e-04 -2.776168e-02 -1.971041e-25)	(2.111351e-02 1.420315e-04 4.502880e-26)
117           	(2.154314e-02 -2.785393e-02 -1.520997e-25)	(3.941531e-04 -2.799596e-02 -1.971352e-25)	(2.114899e-02 1.420319e-04 4.503553e-26)
118           	(2.157559e-02 -2.808285e-02 -1.521240e-25)	(3.942515e-04 -2.822488e-02 -1.971660e-25)	(2.118134e-02 1.420321e-04 4.504206e-26)
119           	(2.160512e-02 -2.830643e-02 -1.521479e-25)	(3.943485e-04 -2.844846e-02 -1.971963e-25)	(2.121077e-02 1.420324e-04 4.504844e-26)
120           	(2.163193e-02 -2.852469e-02 -1.521715e-25)	(3.944437e-04 -2.866672e-02 -1.972261e-25)	(2.123748e-02 1.420327e-04 4.505459e-26)
121           	(2.165619e-02 -2.873772e-02 -1.521946e-25)	(3.945371e-04 -2.887975e-02 -1.972552e-25)	(2.126166e-02 1.420329e-04 4.506053e-26)
122           	(2.167809e-02 -2.894581e-02 -1.522173e-25)	(3.946282e-04 -2.908784e-02 -1.972835e-25)	(2.128346e-02 1.420330e-04 4.506624e-26)
123           	(2.169775e-02 -2.914902e-02 -1.522394e-25)	(3.947169e-04 -2.929106e-02 -1.973111e-25)	(2.130303e-02 1.420332e-04 4.507172e-26)
124           	(2.171533e-02 -2.934734e-02 -1.522609e-25)	(3.948029e-04 -2.948937e-02 -1.973378e-25)	(2.132052e-02 1.420333e-04 4.507691e-26)
125           	(2.173093e-02 -2.954077e-02 -1.522817e-25)	(3.948860e-04 -2.968280e-02 -1.973635e-25)	(2.133605e-02 1.420335e-04 4.508187e-26)
126           	(2.174467e-02 -2.972929e-02 -1.523017e-25)	(3.949660e-04 -2.987132e-02 -1.973883e-25)	(2.134971e-02 1.420336e-04 4.508658e-26)
127           	(2.175664e-02 -2.991269e-02 -1.523211e-25)	(3.950429e-04 -3.005472e-02 -1.974121e-25)	(2.136159e-02 1.420336e-04 4.509104e-26)
128           	(2.176691e-02 -3.009112e-02 -1.523397e-25)	(3.951166e-04 -3.023315e-02 -1.974349e-25)	(2.137179e-02 1.420337e-04 4.509524e-26)
129           	(2.177555e-02 -3.026465e-02 -1.523574e-25)	(3.951869e-04 -3.040669e-02 -1.974566e-25)	(2.138036e-02 1.420337e-04 4.509922e-26)
130           	(2.178264e-02 -3.043342e-02 -1.523744e-25)	(3.952539e-04 -3.057545e-02 -1.974773e-25)	(2.138739e-02 1.420338e-04 4.510297e-26)
131           	(2.178825e-02 -3.059742e-02 -1.523905e-25)	(3.953177e-04 -3.073946e-02 -1.974970e-25)	(2.139293e-02 1.420338e-04 4.510651e-26)
132           	(2.179247e-02 -3.075667e-02 -1.524059e-25)	(3.953781e-04 -3.089870e-02 -1.975157e-25)	(2.139709e-02 1.420338e-04 4.510982e-26)
133           	(2.179537e-02 -3.091118e-02 -1.524205e-25)	(3.954353e-04 -3.105321e-02 -1.975334e-25)	(2.139994e-02 1.420337e-04 4.511292e-26)
134           	(2.179705e-02 -3.106110e-02 -1.524342e-25)	(3.954894e-04 -3.120314e-02 -1.975501e-25)	(2.140156e-02 1.420337e-04 4.511583e-26)
135           	(2.179759e-02 -3.122304e-02 -1.524470e-25)	(3.955445e-04 -3.136508e-02 -1.975671e-25)	(2.140205e-02 1.420337e-04 4.512012e-26)
136           	(2.179705e-02 -3.137189e-02 -1.524604e-25)	(3.955951e-04 -3.151393e-02 -1.975828e-25)	(2.140146e-02 1.420337e-04 4.512237e-26)
137           	(2.179552e-02 -3.151288e-02 -1.524726e-25)	(3.956418e-04 -3.165492e-02 -1.975972e-25)	(2.139987e-02 1.420337e-04 4.512457e-26)
138           	(2.179309e-02 -3.164836e-02 -1.524839e-25)	(3.956854e-04 -3.179040e-02 -1.976107e-25)	(2.139741e-02 1.420337e-04 4.512680e-26)
139           	(2.178987e-02 -3.177907e-02 -1.524945e-25)	(3.957262e-04 -3.192110e-02 -1.976234e-25)	(2.139414e-02 1.420338e-04 4.512893e-26)
140           	(2.178595e-02 -3.190537e-02 -1.525043e-25)	(3.957646e-04 -3.204740e-02 -1.976353e-25)	(2.139018e-02 1.420338e-04 4.513096e-26)
141           	(2.178141e-02 -3.202739e-02 -1.525136e-25)	(3.958007e-04 -3.216943e-02 -1.976465e-25)	(2.138561e-02 1.420339e-04 4.513289e-26)
142           	(2.177635e-02 -3.214525e-02 -1.525224e-25)	(3.958346e-04 -3.228728e-02 -1.976571e-25)	(2.138051e-02 1.420340e-04 4.513474e-26)
143           	(2.177082e-02 -3.225899e-02 -1.525306e-25)	(3.958666e-04 -3.240102e-02 -1.976671e-25)	(2.137495e-02 1.420341e-04 4.513649e-26)
144           	(2.176488e-02 -3.236874e-02 -1.525384e-25)	(3.958968e-04 -3.251077e-02 -1.976765e-25)	(2.136899e-02 1.420342e-04 4.513815e-26)
145           	(2.175860e-02 -3.247461e-02 -1.525457e-25)	(3.959254e-04 -3.261664e-02 -1.976854e-25)	(2.136267e-02 1.420342e-04 4.513975e-26)
146           	(2.175202e-02 -3.257670e-02 -1.525527e-25)	(3.959524e-04 -3.271874e-02 -1.976939e-25)	(2.135607e-02 1.420343e-04 4.514127e-26)
147           	(2.174521e-02 -3.267518e-02 -1.525592e-25)	(3.959781e-04 -3.281722e-02 -1.977020e-25)	(2.134924e-02 1.420344e-04 4.514273e-26)
148           	(2.173822e-02 -3.277020e-02 -1.525655e-25)	(3.960025e-04 -3.291223e-02 -1.977097e-25)	(2.134222e-02 1.420344e-04 4.514416e-26)
149           	(2.173111e-02 -3.286190e-02 -1.525715e-25)	(3.960262e-04 -3.300393e-02 -1.977171e-25)	(2.133508e-02 1.420345e-04 4.514564e-26)
150           	(2.172391e-02 -3.295015e-02 -1.525773e-25)	(3.960486e-04 -3.309218e-02 -1.977242e-25)	(2.132786e-02 1.420347e-04 4.514692e-26)
151           	(2.171668e-02 -3.303521e-02 -1.525828e-25)	(3.960702e-04 -3.317724e-02 -1.977310e-25)	(2.132061e-02 1.420348e-04 4.514822e-26)
152           	(2.170946e-02 -3.311722e-02 -1.525881e-25)	(3.960907e-04 -3.325925e-02 -1.977375e-25)	(2.131337e-02 1.420349e-04 4.514942e-26)
153           	(2.170228e-02 -3.319652e-02 -1.525931e-25)	(3.961110e-04 -3.333855e-02 -1.977439e-25)	(2.130617e-02 1.420351e-04 4.515078e-26)
154           	(2.169516e-02 -3.327304e-02 -1.525981e-25)	(3.961305e-04 -3.341507e-02 -1.977501e-25)	(2.129903e-02 1.420353e-04 4.515200e-26)
155           	(2.168814e-02 -3.334666e-02 -1.526029e-25)	(3.961494e-04 -3.348870e-02 -1.977560e-25)	(2.129199e-02 1.420355e-04 4.515316e-26)
156           	(2.168123e-02 -3.341758e-02 -1.526075e-25)	(3.961678e-04 -3.355962e-02 -1.977619e-25)	(2.128506e-02 1.420357e-04 4.515433e-26)
157           	(2.167445e-02 -3.348598e-02 -1.526121e-25)	(3.961858e-04 -3.362801e-02 -1.977675e-25)	(2.127827e-02 1.420358e-04 4.515546e-26)
158           	(2.166782e-02 -3.355201e-02 -1.526165e-25)	(3.962033e-04 -3.369404e-02 -1.977730e-25)	(2.127161e-02 1.420360e-04 4.515659e-26)
159           	(2.166134e-02 -3.361578e-02 -1.526208e-25)	(3.962204e-04 -3.375782e-02 -1.977785e-25)	(2.126512e-02 1.420361e-04 4.515770e-26)
160           	(2.165501e-02 -3.367740e-02 -1.526250e-25)	(3.962371e-04 -3.381944e-02 -1.977837e-25)	(2.125877e-02 1.420363e-04 4.515877e-26)
161           	(2.164884e-02 -3.373689e-02 -1.526291e-25)	(3.962535e-04 -3.387893e-02 -1.977889e-25)	(2.125259e-02 1.420364e-04 4.515981e-26)
162           	(2.164284e-02 -3.379440e-02 -1.526331e-25)	(3.962695e-04 -3.393643e-02 -1.977939e-25)	(2.124657e-02 1.420365e-04 4.516083e-26)
163           	(2.163701e-02 -3.384993e-02 -1.526370e-25)	(3.962850e-04 -3.399196e-02 -1.977988e-25)	(2.124073e-02 1.420366e-04 4.516180e-26)
164           	(2.163137e-02 -3.390368e-02 -1.526408e-25)	(3.963002e-04 -3.404572e-02 -1.978036e-25)	(2.123507e-02 1.420367e-04 4.516276e-26)
165           	(2.162594e-02 -3.395560e-02 -1.526445e-25)	(3.963150e-04 -3.409763e-02 -1.978082e-25)	(2.122962e-02 1.420368e-04 4.516367e-26)
166           	(2.162070e-02 -3.400584e-02 -1.526481e-25)	(3.963293e-04 -3.414788e-02 -1.978127e-25)	(2.122437e-02 1.420369e-04 4.516455e-26)
167           	(2.161566e-02 -3.405441e-02 -1.526516e-25)	(3.963432e-04 -3.419645e-02 -1.978170e-25)	(2.121932e-02 1.420370e-04 4.516539e-26)
168           	(2.161082e-02 -3.410148e-02 -1.526550e-25)	(3.963567e-04 -3.424352e-02 -1.978212e-25)	(2.121446e-02 1.420371e-04 4.516621e-26)
169           	(2.160616e-02 -3.414908e-02 -1.526583e-25)	(3.963706e-04 -3.429112e-02 -1.978256e-25)	(2.120979e-02 1.420372e-04 4.516731e-26)
170           	(2.160168e-02 -3.419004e-02 -1.526618e-25)	(3.963820e-04 -3.433207e-02 -1.978291e-25)	(2.120530e-02 1.420375e-04 4.516736e-26)
171           	(2.159739e-02 -3.423567e-02 -1.526644e-25)	(3.963952e-04 -3.437770e-02 -1.978332e-25)	(2.120099e-02 1.420371e-04 4.516883e-26)
172           	(2.159327e-02 -3.427468e-02 -1.526677e-25)	(3.964061e-04 -3.441672e-02 -1.978366e-25)	(2.119686e-02 1.420376e-04 4.516889e-26)
173           	(2.158933e-02 -3.431612e-02 -1.526703e-25)	(3.964177e-04 -3.445816e-02 -1.978402e-25)	(2.119291e-02 1.420372e-04 4.516994e-26)
174           	(2.158556e-02 -3.435596e-02 -1.526731e-25)	(3.964288e-04 -3.449800e-02 -1.978437e-25)	(2.118914e-02 1.420374e-04 4.517056e-26)
175           	(2.158197e-02 -3.439420e-02 -1.526758e-25)	(3.964392e-04 -3.453624e-02 -1.978469e-25)	(2.118553e-02 1.420375e-04 4.517111e-26)
176           	(2.157853e-02 -3.443124e-02 -1.526783e-25)	(3.964492e-04 -3.457328e-02 -1.978500e-25)	(2.118208e-02 1.420376e-04 4.517165e-26)
177           	(2.157525e-02 -3.446729e-02 -1.526807e-25)	(3.964587e-04 -3.460933e-02 -1.978529e-25)	(2.117879e-02 1.420377e-04 4.517221e-26)
178           	(2.157213e-02 -3.450390e-02 -1.526830e-25)	(3.964684e-04 -3.464593e-02 -1.978559e-25)	(2.117566e-02 1.420377e-04 4.517293e-26)
179           	(2.156917e-02 -3.453583e-02 -1.526854e-25)	(3.964765e-04 -3.467786e-02 -1.978584e-25)	(2.117269e-02 1.420380e-04 4.517302e-26)
180           	(2.156637e-02 -3.457120e-02 -1.526873e-25)	(3.964855e-04 -3.471323e-02 -1.978612e-25)	(2.116988e-02 1.420377e-04 4.517397e-26)
181           	(2.156372e-02 -3.460322e-02 -1.526895e-25)	(3.964935e-04 -3.474526e-02 -1.978637e-25)	(2.116722e-02 1.420380e-04 4.517420e-26)
182           	(2.156122e-02 -3.463473e-02 -1.526914e-25)	(3.965011e-04 -3.477677e-02 -1.978661e-25)	(2.116471e-02 1.420379e-04 4.517466e-26)
183           	(2.155886e-02 -3.466566e-02 -1.526932e-25)	(3.965085e-04 -3.480769e-02 -1.978683e-25)	(2.116235e-02 1.420379e-04 4.517509e-26)
184           	(2.155663e-02 -3.469462e-02 -1.526950e-25)	(3.965151e-04 -3.483666e-02 -1.978704e-25)	(2.116011e-02 1.420379e-04 4.517536e-26)
185           	(2.155452e-02 -3.472607e-02 -1.526966e-25)	(3.965224e-04 -3.486811e-02 -1.978726e-25)	(2.115800e-02 1.420378e-04 4.517606e-26)
186           	(2.155251e-02 -3.475306e-02 -1.526984e-25)	(3.965283e-04 -3.489509e-02 -1.978745e-25)	(2.115599e-02 1.420380e-04 4.517608e-26)
187           	(2.155061e-02 -3.478143e-02 -1.526998e-25)	(3.965346e-04 -3.492347e-02 -1.978764e-25)	(2.115408e-02 1.420378e-04 4.517667e-26)
188           	(2.154881e-02 -3.480997e-02 -1.527013e-25)	(3.965409e-04 -3.495201e-02 -1.978784e-25)	(2.115227e-02 1.420378e-04 4.517711e-26)
189           	(2.154710e-02 -3.483572e-02 -1.527028e-25)	(3.965463e-04 -3.497776e-02 -1.978801e-25)	(2.115055e-02 1.420380e-04 4.517726e-26)
190           	(2.154548e-02 -3.486110e-02 -1.527042e-25)	(3.965516e-04 -3.500313e-02 -1.978817e-25)	(2.114893e-02 1.420380e-04 4.517757e-26)
191           	(2.154395e-02 -3.488630e-02 -1.527054e-25)	(3.965569e-04 -3.502833e-02 -1.978834e-25)	(2.114739e-02 1.420380e-04 4.517797e-26)
192           	(2.154251e-02 -3.491097e-02 -1.527067e-25)	(3.965620e-04 -3.505300e-02 -1.978850e-25)	(2.114595e-02 1.420380e-04 4.517829e-26)
193           	(2.154116e-02 -3.493498e-02 -1.527079e-25)	(3.965669e-04 -3.507702e-02 -1.978865e-25)	(2.114459e-02 1.420380e-04 4.517859e-26)
194           	(2.153988e-02 -3.495837e-02 -1.527091e-25)	(3.965716e-04 -3.510041e-02 -1.978880e-25)	(2.114331e-02 1.420380e-04 4.517888e-26)
195           	(2.153868e-02 -3.498119e-02 -1.527103e-25)	(3.965762e-04 -3.512322e-02 -1.978894e-25)	(2.114210e-02 1.420380e-04 4.517917e-26)
196           	(2.153755e-02 -3.500346e-02 -1.527114e-25)	(3.965807e-04 -3.514550e-02 -1.978908e-25)	(2.114097e-02 1.420380e-04 4.517945e-26)
197           	(2.153649e-02 -3.502522e-02 -1.527125e-25)	(3.965851e-04 -3.516726e-02 -1.978922e-25)	(2.113991e-02 1.420380e-04 4.517974e-26)
198           	(2.153549e-02 -3.504646e-02 -1.527135e-25)	(3.965894e-04 -3.518850e-02 -1.978936e-25)	(2.113891e-02 1.420381e-04 4.518003e-26)
199           	(2.153455e-02 -3.506638e-02 -1.527146e-25)	(3.965934e-04 -3.520841e-02 -1.978948e-25)	(2.113796e-02 1.420381e-04 4.518023e-26)
200           	(2.153367e-02 -3.508707e-02 -1.527156e-25)	(3.965976e-04 -3.522910e-02 -1.978962e-25)	(2.113707e-02 1.420379e-04 4.518061e-26)
201           	(2.153282e-02 -3.510700e-02 -1.527166e-25)	(3.966018e-04 -3.524904e-02 -1.978975e-25)	(2.113622e-02 1.420380e-04 4.518087e-26)
202           	(2.153201e-02 -3.512621e-02 -1.527176e-25)	(3.966058e-04 -3.526825e-02 -1.978987e-25)	(2.113541e-02 1.420381e-04 4.518111e-26)
203           	(2.153123e-02 -3.514486e-02 -1.527186e-25)	(3.966096e-04 -3.528690e-02 -1.978999e-25)	(2.113462e-02 1.420381e-04 4.518136e-26)
204           	(2.153048e-02 -3.516305e-02 -1.527195e-25)	(3.966134e-04 -3.530509e-02 -1.979011e-25)	(2.113387e-02 1.420381e-04 4.518161e-26)
205           	(2.152976e-02 -3.518081e-02 -1.527205e-25)	(3.966172e-04 -3.532285e-02 -1.979023e-25)	(2.113314e-02 1.420381e-04 4.518186e-26)
206           	(2.152907e-02 -3.519815e-02 -1.527214e-25)	(3.966209e-04 -3.534018e-02 -1.979035e-25)	(2.113245e-02 1.420381e-04 4.518211e-26)
207           	(2.152842e-02 -3.521507e-02 -1.527223e-25)	(3.966246e-04 -3.535710e-02 -1.979046e-25)	(2.113180e-02 1.420382e-04 4.518236e-26)
208           	(2.152780e-02 -3.523156e-02 -1.527232e-25)	(3.966281e-04 -3.537360e-02 -1.979058e-25)	(2.113117e-02 1.420382e-04 4.518259e-26)
209           	(2.152721e-02 -3.524760e-02 -1.527240e-25)	(3.966316e-04 -3.538964e-02 -1.979069e-25)	(2.113058e-02 1.420382e-04 4.518281e-26)
210           	(2.152665e-02 -3.526320e-02 -1.527249e-25)	(3.966350e-04 -3.540524e-02 -1.979079e-25)	(2.113001e-02 1.420382e-04 4.518303e-26)